+ 2.108 /NodeList/0/DeviceList/0/$ns3::UanNetDevice/Phy/Tx ns3::UanHeaderCommon (UAN src=0 dest=255 type=2Protocol Number=2) ns3::ArpHeader (request source mac: 00-01-00 source ipv4: 10.1.2.1 dest ipv4: 10.1.2.2) ns3::UanTrailer (fcs=0)
r 2.23613 /NodeList/3/DeviceList/0/$ns3::UanNetDevice/Phy/RxOk ns3::UanHeaderCommon (UAN src=0 dest=255 type=2Protocol Number=2) ns3::ArpHeader (request source mac: 00-01-00 source ipv4: 10.1.2.1 dest ipv4: 10.1.2.2) ns3::UanTrailer (fcs=0)
r 2.24144 /NodeList/1/DeviceList/0/$ns3::UanNetDevice/Phy/RxOk ns3::UanHeaderCommon (UAN src=0 dest=255 type=2Protocol Number=2) ns3::ArpHeader (request source mac: 00-01-00 source ipv4: 10.1.2.1 dest ipv4: 10.1.2.2) ns3::UanTrailer (fcs=0)
+ 2.24144 /NodeList/1/DeviceList/0/$ns3::UanNetDevice/Phy/Tx ns3::UanHeaderCommon (UAN src=1 dest=0 type=2Protocol Number=2) ns3::ArpHeader (reply source mac: 00-01-01 source ipv4: 10.1.2.2 dest mac: 00-01-00 dest ipv4: 10.1.2.1) ns3::UanTrailer (fcs=0)
r 2.27786 /NodeList/4/DeviceList/0/$ns3::UanNetDevice/Phy/RxOk ns3::UanHeaderCommon (UAN src=0 dest=255 type=2Protocol Number=2) ns3::ArpHeader (request source mac: 00-01-00 source ipv4: 10.1.2.1 dest ipv4: 10.1.2.2) ns3::UanTrailer (fcs=0)
r 2.28016 /NodeList/2/DeviceList/0/$ns3::UanNetDevice/Phy/RxOk ns3::UanHeaderCommon (UAN src=0 dest=255 type=2Protocol Number=2) ns3::ArpHeader (request source mac: 00-01-00 source ipv4: 10.1.2.1 dest ipv4: 10.1.2.2) ns3::UanTrailer (fcs=0)
+ 2.309 /NodeList/0/DeviceList/0/$ns3::UanNetDevice/Phy/Tx ns3::UanHeaderCommon (UAN src=0 dest=255 type=2Protocol Number=2) ns3::ArpHeader (request source mac: 00-01-00 source ipv4: 10.1.2.1 dest ipv4: 10.1.2.3) ns3::UanTrailer (fcs=0)
r 2.44244 /NodeList/1/DeviceList/0/$ns3::UanNetDevice/Phy/RxOk ns3::UanHeaderCommon (UAN src=0 dest=255 type=2Protocol Number=2) ns3::ArpHeader (request source mac: 00-01-00 source ipv4: 10.1.2.1 dest ipv4: 10.1.2.3) ns3::UanTrailer (fcs=0)
+ 10.1 /NodeList/0/DeviceList/0/$ns3::UanNetDevice/Phy/Tx ns3::UanHeaderCommon (UAN src=0 dest=255 type=2Protocol Number=2) ns3::ArpHeader (request source mac: 00-01-00 source ipv4: 10.1.2.1 dest ipv4: 10.1.2.2) ns3::UanTrailer (fcs=0)
r 10.2281 /NodeList/3/DeviceList/0/$ns3::UanNetDevice/Phy/RxOk ns3::UanHeaderCommon (UAN src=0 dest=255 type=2Protocol Number=2) ns3::ArpHeader (request source mac: 00-01-00 source ipv4: 10.1.2.1 dest ipv4: 10.1.2.2) ns3::UanTrailer (fcs=0)
r 10.2334 /NodeList/1/DeviceList/0/$ns3::UanNetDevice/Phy/RxOk ns3::UanHeaderCommon (UAN src=0 dest=255 type=2Protocol Number=2) ns3::ArpHeader (request source mac: 00-01-00 source ipv4: 10.1.2.1 dest ipv4: 10.1.2.2) ns3::UanTrailer (fcs=0)
+ 10.2334 /NodeList/1/DeviceList/0/$ns3::UanNetDevice/Phy/Tx ns3::UanHeaderCommon (UAN src=1 dest=0 type=2Protocol Number=2) ns3::ArpHeader (reply source mac: 00-01-01 source ipv4: 10.1.2.2 dest mac: 00-01-00 dest ipv4: 10.1.2.1) ns3::UanTrailer (fcs=0)
r 10.2699 /NodeList/4/DeviceList/0/$ns3::UanNetDevice/Phy/RxOk ns3::UanHeaderCommon (UAN src=0 dest=255 type=2Protocol Number=2) ns3::ArpHeader (request source mac: 00-01-00 source ipv4: 10.1.2.1 dest ipv4: 10.1.2.2) ns3::UanTrailer (fcs=0)
r 10.2722 /NodeList/2/DeviceList/0/$ns3::UanNetDevice/Phy/RxOk ns3::UanHeaderCommon (UAN src=0 dest=255 type=2Protocol Number=2) ns3::ArpHeader (request source mac: 00-01-00 source ipv4: 10.1.2.1 dest ipv4: 10.1.2.2) ns3::UanTrailer (fcs=0)
r 10.3388 /NodeList/3/DeviceList/0/$ns3::UanNetDevice/Phy/RxOk ns3::UanHeaderCommon (UAN src=1 dest=0 type=2Protocol Number=2) ns3::ArpHeader (reply source mac: 00-01-01 source ipv4: 10.1.2.2 dest mac: 00-01-00 dest ipv4: 10.1.2.1) ns3::UanTrailer (fcs=0)
r 10.3669 /NodeList/0/DeviceList/0/$ns3::UanNetDevice/Phy/RxOk ns3::UanHeaderCommon (UAN src=1 dest=0 type=2Protocol Number=2) ns3::ArpHeader (reply source mac: 00-01-01 source ipv4: 10.1.2.2 dest mac: 00-01-00 dest ipv4: 10.1.2.1) ns3::UanTrailer (fcs=0)
+ 10.3669 /NodeList/0/DeviceList/0/$ns3::UanNetDevice/Phy/Tx ns3::UanHeaderCommon (UAN src=0 dest=1 type=2Protocol Number=1) ns3::Ipv4Header (tos 0x0 DSCP Default ECN Not-ECT ttl 64 id 0 protocol 17 offset (bytes) 0 flags [none] length: 138 10.1.2.1 > 10.1.2.2) ns3::UdpHeader (length: 118 49153 > 9) Payload (size=110) ns3::UanTrailer (fcs=0)
r 10.4001 /NodeList/2/DeviceList/0/$ns3::UanNetDevice/Phy/RxOk ns3::UanHeaderCommon (UAN src=1 dest=0 type=2Protocol Number=2) ns3::ArpHeader (reply source mac: 00-01-01 source ipv4: 10.1.2.2 dest mac: 00-01-00 dest ipv4: 10.1.2.1) ns3::UanTrailer (fcs=0)
r 10.4003 /NodeList/4/DeviceList/0/$ns3::UanNetDevice/Phy/RxOk ns3::UanHeaderCommon (UAN src=1 dest=0 type=2Protocol Number=2) ns3::ArpHeader (reply source mac: 00-01-01 source ipv4: 10.1.2.2 dest mac: 00-01-00 dest ipv4: 10.1.2.1) ns3::UanTrailer (fcs=0)
r 10.975 /NodeList/3/DeviceList/0/$ns3::UanNetDevice/Phy/RxOk ns3::UanHeaderCommon (UAN src=0 dest=1 type=2Protocol Number=1) ns3::Ipv4Header (tos 0x0 DSCP Default ECN Not-ECT ttl 64 id 0 protocol 17 offset (bytes) 0 flags [none] length: 138 10.1.2.1 > 10.1.2.2) ns3::UdpHeader (length: 118 49153 > 9) Payload (size=110) ns3::UanTrailer (fcs=0)
r 10.9803 /NodeList/1/DeviceList/0/$ns3::UanNetDevice/Phy/RxOk ns3::UanHeaderCommon (UAN src=0 dest=1 type=2Protocol Number=1) ns3::Ipv4Header (tos 0x0 DSCP Default ECN Not-ECT ttl 64 id 0 protocol 17 offset (bytes) 0 flags [none] length: 138 10.1.2.1 > 10.1.2.2) ns3::UdpHeader (length: 118 49153 > 9) Payload (size=110) ns3::UanTrailer (fcs=0)
r 11.0167 /NodeList/4/DeviceList/0/$ns3::UanNetDevice/Phy/RxOk ns3::UanHeaderCommon (UAN src=0 dest=1 type=2Protocol Number=1) ns3::Ipv4Header (tos 0x0 DSCP Default ECN Not-ECT ttl 64 id 0 protocol 17 offset (bytes) 0 flags [none] length: 138 10.1.2.1 > 10.1.2.2) ns3::UdpHeader (length: 118 49153 > 9) Payload (size=110) ns3::UanTrailer (fcs=0)
r 11.019 /NodeList/2/DeviceList/0/$ns3::UanNetDevice/Phy/RxOk ns3::UanHeaderCommon (UAN src=0 dest=1 type=2Protocol Number=1) ns3::Ipv4Header (tos 0x0 DSCP Default ECN Not-ECT ttl 64 id 0 protocol 17 offset (bytes) 0 flags [none] length: 138 10.1.2.1 > 10.1.2.2) ns3::UdpHeader (length: 118 49153 > 9) Payload (size=110) ns3::UanTrailer (fcs=0)
+ 11.9803 /NodeList/1/DeviceList/0/$ns3::UanNetDevice/Phy/Tx ns3::UanHeaderCommon (UAN src=1 dest=0 type=1Protocol Number=1) Payload (size=105)
r 12.4177 /NodeList/3/DeviceList/0/$ns3::UanNetDevice/Phy/RxOk ns3::UanHeaderCommon (UAN src=1 dest=0 type=1Protocol Number=1) Payload (size=105)
r 12.4458 /NodeList/0/DeviceList/0/$ns3::UanNetDevice/Phy/RxOk ns3::UanHeaderCommon (UAN src=1 dest=0 type=1Protocol Number=1) Payload (size=105)
r 12.479 /NodeList/2/DeviceList/0/$ns3::UanNetDevice/Phy/RxOk ns3::UanHeaderCommon (UAN src=1 dest=0 type=1Protocol Number=1) Payload (size=105)
r 12.4792 /NodeList/4/DeviceList/0/$ns3::UanNetDevice/Phy/RxOk ns3::UanHeaderCommon (UAN src=1 dest=0 type=1Protocol Number=1) Payload (size=105)
+ 17.6626 /NodeList/0/DeviceList/0/$ns3::UanNetDevice/Phy/Tx ns3::UanHeaderCommon (UAN src=0 dest=1 type=2Protocol Number=1) ns3::Ipv4Header (tos 0x0 DSCP Default ECN Not-ECT ttl 64 id 1 protocol 17 offset (bytes) 0 flags [none] length: 138 10.1.2.1 > 10.1.2.2) ns3::UdpHeader (length: 118 49153 > 9) Payload (size=110) ns3::UanTrailer (fcs=0)
r 18.2707 /NodeList/3/DeviceList/0/$ns3::UanNetDevice/Phy/RxOk ns3::UanHeaderCommon (UAN src=0 dest=1 type=2Protocol Number=1) ns3::Ipv4Header (tos 0x0 DSCP Default ECN Not-ECT ttl 64 id 1 protocol 17 offset (bytes) 0 flags [none] length: 138 10.1.2.1 > 10.1.2.2) ns3::UdpHeader (length: 118 49153 > 9) Payload (size=110) ns3::UanTrailer (fcs=0)
r 18.276 /NodeList/1/DeviceList/0/$ns3::UanNetDevice/Phy/RxOk ns3::UanHeaderCommon (UAN src=0 dest=1 type=2Protocol Number=1) ns3::Ipv4Header (tos 0x0 DSCP Default ECN Not-ECT ttl 64 id 1 protocol 17 offset (bytes) 0 flags [none] length: 138 10.1.2.1 > 10.1.2.2) ns3::UdpHeader (length: 118 49153 > 9) Payload (size=110) ns3::UanTrailer (fcs=0)
r 18.3124 /NodeList/4/DeviceList/0/$ns3::UanNetDevice/Phy/RxOk ns3::UanHeaderCommon (UAN src=0 dest=1 type=2Protocol Number=1) ns3::Ipv4Header (tos 0x0 DSCP Default ECN Not-ECT ttl 64 id 1 protocol 17 offset (bytes) 0 flags [none] length: 138 10.1.2.1 > 10.1.2.2) ns3::UdpHeader (length: 118 49153 > 9) Payload (size=110) ns3::UanTrailer (fcs=0)
r 18.3147 /NodeList/2/DeviceList/0/$ns3::UanNetDevice/Phy/RxOk ns3::UanHeaderCommon (UAN src=0 dest=1 type=2Protocol Number=1) ns3::Ipv4Header (tos 0x0 DSCP Default ECN Not-ECT ttl 64 id 1 protocol 17 offset (bytes) 0 flags [none] length: 138 10.1.2.1 > 10.1.2.2) ns3::UdpHeader (length: 118 49153 > 9) Payload (size=110) ns3::UanTrailer (fcs=0)
+ 19.276 /NodeList/1/DeviceList/0/$ns3::UanNetDevice/Phy/Tx ns3::UanHeaderCommon (UAN src=1 dest=0 type=1Protocol Number=1) Payload (size=105)
r 19.7133 /NodeList/3/DeviceList/0/$ns3::UanNetDevice/Phy/RxOk ns3::UanHeaderCommon (UAN src=1 dest=0 type=1Protocol Number=1) Payload (size=105)
r 19.7414 /NodeList/0/DeviceList/0/$ns3::UanNetDevice/Phy/RxOk ns3::UanHeaderCommon (UAN src=1 dest=0 type=1Protocol Number=1) Payload (size=105)
r 19.7747 /NodeList/2/DeviceList/0/$ns3::UanNetDevice/Phy/RxOk ns3::UanHeaderCommon (UAN src=1 dest=0 type=1Protocol Number=1) Payload (size=105)
r 19.7749 /NodeList/4/DeviceList/0/$ns3::UanNetDevice/Phy/RxOk ns3::UanHeaderCommon (UAN src=1 dest=0 type=1Protocol Number=1) Payload (size=105)
+ 26.1 /NodeList/0/DeviceList/0/$ns3::UanNetDevice/Phy/Tx ns3::UanHeaderCommon (UAN src=0 dest=255 type=2Protocol Number=2) ns3::ArpHeader (request source mac: 00-01-00 source ipv4: 10.1.2.1 dest ipv4: 10.1.2.3) ns3::UanTrailer (fcs=0)
r 26.2281 /NodeList/3/DeviceList/0/$ns3::UanNetDevice/Phy/RxOk ns3::UanHeaderCommon (UAN src=0 dest=255 type=2Protocol Number=2) ns3::ArpHeader (request source mac: 00-01-00 source ipv4: 10.1.2.1 dest ipv4: 10.1.2.3) ns3::UanTrailer (fcs=0)
r 26.2334 /NodeList/1/DeviceList/0/$ns3::UanNetDevice/Phy/RxOk ns3::UanHeaderCommon (UAN src=0 dest=255 type=2Protocol Number=2) ns3::ArpHeader (request source mac: 00-01-00 source ipv4: 10.1.2.1 dest ipv4: 10.1.2.3) ns3::UanTrailer (fcs=0)
r 26.2699 /NodeList/4/DeviceList/0/$ns3::UanNetDevice/Phy/RxOk ns3::UanHeaderCommon (UAN src=0 dest=255 type=2Protocol Number=2) ns3::ArpHeader (request source mac: 00-01-00 source ipv4: 10.1.2.1 dest ipv4: 10.1.2.3) ns3::UanTrailer (fcs=0)
r 26.2722 /NodeList/2/DeviceList/0/$ns3::UanNetDevice/Phy/RxOk ns3::UanHeaderCommon (UAN src=0 dest=255 type=2Protocol Number=2) ns3::ArpHeader (request source mac: 00-01-00 source ipv4: 10.1.2.1 dest ipv4: 10.1.2.3) ns3::UanTrailer (fcs=0)
+ 26.2722 /NodeList/2/DeviceList/0/$ns3::UanNetDevice/Phy/Tx ns3::UanHeaderCommon (UAN src=2 dest=0 type=2Protocol Number=2) ns3::ArpHeader (reply source mac: 00-01-02 source ipv4: 10.1.2.3 dest mac: 00-01-00 dest ipv4: 10.1.2.1) ns3::UanTrailer (fcs=0)
r 26.3775 /NodeList/4/DeviceList/0/$ns3::UanNetDevice/Phy/RxOk ns3::UanHeaderCommon (UAN src=2 dest=0 type=2Protocol Number=2) ns3::ArpHeader (reply source mac: 00-01-02 source ipv4: 10.1.2.3 dest mac: 00-01-00 dest ipv4: 10.1.2.1) ns3::UanTrailer (fcs=0)
r 26.4388 /NodeList/1/DeviceList/0/$ns3::UanNetDevice/Phy/RxOk ns3::UanHeaderCommon (UAN src=2 dest=0 type=2Protocol Number=2) ns3::ArpHeader (reply source mac: 00-01-02 source ipv4: 10.1.2.3 dest mac: 00-01-00 dest ipv4: 10.1.2.1) ns3::UanTrailer (fcs=0)
r 26.439 /NodeList/3/DeviceList/0/$ns3::UanNetDevice/Phy/RxOk ns3::UanHeaderCommon (UAN src=2 dest=0 type=2Protocol Number=2) ns3::ArpHeader (reply source mac: 00-01-02 source ipv4: 10.1.2.3 dest mac: 00-01-00 dest ipv4: 10.1.2.1) ns3::UanTrailer (fcs=0)
r 26.4443 /NodeList/0/DeviceList/0/$ns3::UanNetDevice/Phy/RxOk ns3::UanHeaderCommon (UAN src=2 dest=0 type=2Protocol Number=2) ns3::ArpHeader (reply source mac: 00-01-02 source ipv4: 10.1.2.3 dest mac: 00-01-00 dest ipv4: 10.1.2.1) ns3::UanTrailer (fcs=0)
+ 26.4443 /NodeList/0/DeviceList/0/$ns3::UanNetDevice/Phy/Tx ns3::UanHeaderCommon (UAN src=0 dest=2 type=2Protocol Number=1) ns3::Ipv4Header (tos 0x0 DSCP Default ECN Not-ECT ttl 64 id 0 protocol 17 offset (bytes) 0 flags [none] length: 137 10.1.2.1 > 10.1.2.3) ns3::UdpHeader (length: 117 49154 > 9) Payload (size=109) ns3::UanTrailer (fcs=0)
r 27.0484 /NodeList/3/DeviceList/0/$ns3::UanNetDevice/Phy/RxOk ns3::UanHeaderCommon (UAN src=0 dest=2 type=2Protocol Number=1) ns3::Ipv4Header (tos 0x0 DSCP Default ECN Not-ECT ttl 64 id 0 protocol 17 offset (bytes) 0 flags [none] length: 137 10.1.2.1 > 10.1.2.3) ns3::UdpHeader (length: 117 49154 > 9) Payload (size=109) ns3::UanTrailer (fcs=0)
r 27.0538 /NodeList/1/DeviceList/0/$ns3::UanNetDevice/Phy/RxOk ns3::UanHeaderCommon (UAN src=0 dest=2 type=2Protocol Number=1) ns3::Ipv4Header (tos 0x0 DSCP Default ECN Not-ECT ttl 64 id 0 protocol 17 offset (bytes) 0 flags [none] length: 137 10.1.2.1 > 10.1.2.3) ns3::UdpHeader (length: 117 49154 > 9) Payload (size=109) ns3::UanTrailer (fcs=0)
r 27.0902 /NodeList/4/DeviceList/0/$ns3::UanNetDevice/Phy/RxOk ns3::UanHeaderCommon (UAN src=0 dest=2 type=2Protocol Number=1) ns3::Ipv4Header (tos 0x0 DSCP Default ECN Not-ECT ttl 64 id 0 protocol 17 offset (bytes) 0 flags [none] length: 137 10.1.2.1 > 10.1.2.3) ns3::UdpHeader (length: 117 49154 > 9) Payload (size=109) ns3::UanTrailer (fcs=0)
r 27.0925 /NodeList/2/DeviceList/0/$ns3::UanNetDevice/Phy/RxOk ns3::UanHeaderCommon (UAN src=0 dest=2 type=2Protocol Number=1) ns3::Ipv4Header (tos 0x0 DSCP Default ECN Not-ECT ttl 64 id 0 protocol 17 offset (bytes) 0 flags [none] length: 137 10.1.2.1 > 10.1.2.3) ns3::UdpHeader (length: 117 49154 > 9) Payload (size=109) ns3::UanTrailer (fcs=0)
+ 28.0925 /NodeList/2/DeviceList/0/$ns3::UanNetDevice/Phy/Tx ns3::UanHeaderCommon (UAN src=2 dest=0 type=1Protocol Number=1) Payload (size=105)
r 28.5298 /NodeList/4/DeviceList/0/$ns3::UanNetDevice/Phy/RxOk ns3::UanHeaderCommon (UAN src=2 dest=0 type=1Protocol Number=1) Payload (size=105)
r 28.5911 /NodeList/1/DeviceList/0/$ns3::UanNetDevice/Phy/RxOk ns3::UanHeaderCommon (UAN src=2 dest=0 type=1Protocol Number=1) Payload (size=105)
r 28.5914 /NodeList/3/DeviceList/0/$ns3::UanNetDevice/Phy/RxOk ns3::UanHeaderCommon (UAN src=2 dest=0 type=1Protocol Number=1) Payload (size=105)
r 28.5966 /NodeList/0/DeviceList/0/$ns3::UanNetDevice/Phy/RxOk ns3::UanHeaderCommon (UAN src=2 dest=0 type=1Protocol Number=1) Payload (size=105)
+ 54.1066 /NodeList/0/DeviceList/0/$ns3::UanNetDevice/Phy/Tx ns3::UanHeaderCommon (UAN src=0 dest=2 type=2Protocol Number=1) ns3::Ipv4Header (tos 0x0 DSCP Default ECN Not-ECT ttl 64 id 3 protocol 17 offset (bytes) 0 flags [none] length: 137 10.1.2.1 > 10.1.2.3) ns3::UdpHeader (length: 117 49154 > 9) Payload (size=109) ns3::UanTrailer (fcs=0)
r 54.7107 /NodeList/3/DeviceList/0/$ns3::UanNetDevice/Phy/RxOk ns3::UanHeaderCommon (UAN src=0 dest=2 type=2Protocol Number=1) ns3::Ipv4Header (tos 0x0 DSCP Default ECN Not-ECT ttl 64 id 3 protocol 17 offset (bytes) 0 flags [none] length: 137 10.1.2.1 > 10.1.2.3) ns3::UdpHeader (length: 117 49154 > 9) Payload (size=109) ns3::UanTrailer (fcs=0)
r 54.716 /NodeList/1/DeviceList/0/$ns3::UanNetDevice/Phy/RxOk ns3::UanHeaderCommon (UAN src=0 dest=2 type=2Protocol Number=1) ns3::Ipv4Header (tos 0x0 DSCP Default ECN Not-ECT ttl 64 id 3 protocol 17 offset (bytes) 0 flags [none] length: 137 10.1.2.1 > 10.1.2.3) ns3::UdpHeader (length: 117 49154 > 9) Payload (size=109) ns3::UanTrailer (fcs=0)
r 54.7524 /NodeList/4/DeviceList/0/$ns3::UanNetDevice/Phy/RxOk ns3::UanHeaderCommon (UAN src=0 dest=2 type=2Protocol Number=1) ns3::Ipv4Header (tos 0x0 DSCP Default ECN Not-ECT ttl 64 id 3 protocol 17 offset (bytes) 0 flags [none] length: 137 10.1.2.1 > 10.1.2.3) ns3::UdpHeader (length: 117 49154 > 9) Payload (size=109) ns3::UanTrailer (fcs=0)
r 54.7547 /NodeList/2/DeviceList/0/$ns3::UanNetDevice/Phy/RxOk ns3::UanHeaderCommon (UAN src=0 dest=2 type=2Protocol Number=1) ns3::Ipv4Header (tos 0x0 DSCP Default ECN Not-ECT ttl 64 id 3 protocol 17 offset (bytes) 0 flags [none] length: 137 10.1.2.1 > 10.1.2.3) ns3::UdpHeader (length: 117 49154 > 9) Payload (size=109) ns3::UanTrailer (fcs=0)
+ 55.7547 /NodeList/2/DeviceList/0/$ns3::UanNetDevice/Phy/Tx ns3::UanHeaderCommon (UAN src=2 dest=0 type=1Protocol Number=1) Payload (size=105)
r 56.192 /NodeList/4/DeviceList/0/$ns3::UanNetDevice/Phy/RxOk ns3::UanHeaderCommon (UAN src=2 dest=0 type=1Protocol Number=1) Payload (size=105)
r 56.2534 /NodeList/1/DeviceList/0/$ns3::UanNetDevice/Phy/RxOk ns3::UanHeaderCommon (UAN src=2 dest=0 type=1Protocol Number=1) Payload (size=105)
r 56.2536 /NodeList/3/DeviceList/0/$ns3::UanNetDevice/Phy/RxOk ns3::UanHeaderCommon (UAN src=2 dest=0 type=1Protocol Number=1) Payload (size=105)
r 56.2589 /NodeList/0/DeviceList/0/$ns3::UanNetDevice/Phy/RxOk ns3::UanHeaderCommon (UAN src=2 dest=0 type=1Protocol Number=1) Payload (size=105)
+ 59.7888 /NodeList/0/DeviceList/0/$ns3::UanNetDevice/Phy/Tx ns3::UanHeaderCommon (UAN src=0 dest=1 type=2Protocol Number=1) ns3::Ipv4Header (tos 0x0 DSCP Default ECN Not-ECT ttl 64 id 2 protocol 17 offset (bytes) 0 flags [none] length: 138 10.1.2.1 > 10.1.2.2) ns3::UdpHeader (length: 118 49153 > 9) Payload (size=110) ns3::UanTrailer (fcs=0)
r 60.397 /NodeList/3/DeviceList/0/$ns3::UanNetDevice/Phy/RxOk ns3::UanHeaderCommon (UAN src=0 dest=1 type=2Protocol Number=1) ns3::Ipv4Header (tos 0x0 DSCP Default ECN Not-ECT ttl 64 id 2 protocol 17 offset (bytes) 0 flags [none] length: 138 10.1.2.1 > 10.1.2.2) ns3::UdpHeader (length: 118 49153 > 9) Payload (size=110) ns3::UanTrailer (fcs=0)
r 60.4023 /NodeList/1/DeviceList/0/$ns3::UanNetDevice/Phy/RxOk ns3::UanHeaderCommon (UAN src=0 dest=1 type=2Protocol Number=1) ns3::Ipv4Header (tos 0x0 DSCP Default ECN Not-ECT ttl 64 id 2 protocol 17 offset (bytes) 0 flags [none] length: 138 10.1.2.1 > 10.1.2.2) ns3::UdpHeader (length: 118 49153 > 9) Payload (size=110) ns3::UanTrailer (fcs=0)
r 60.4387 /NodeList/4/DeviceList/0/$ns3::UanNetDevice/Phy/RxOk ns3::UanHeaderCommon (UAN src=0 dest=1 type=2Protocol Number=1) ns3::Ipv4Header (tos 0x0 DSCP Default ECN Not-ECT ttl 64 id 2 protocol 17 offset (bytes) 0 flags [none] length: 138 10.1.2.1 > 10.1.2.2) ns3::UdpHeader (length: 118 49153 > 9) Payload (size=110) ns3::UanTrailer (fcs=0)
r 60.441 /NodeList/2/DeviceList/0/$ns3::UanNetDevice/Phy/RxOk ns3::UanHeaderCommon (UAN src=0 dest=1 type=2Protocol Number=1) ns3::Ipv4Header (tos 0x0 DSCP Default ECN Not-ECT ttl 64 id 2 protocol 17 offset (bytes) 0 flags [none] length: 138 10.1.2.1 > 10.1.2.2) ns3::UdpHeader (length: 118 49153 > 9) Payload (size=110) ns3::UanTrailer (fcs=0)
+ 61.4023 /NodeList/1/DeviceList/0/$ns3::UanNetDevice/Phy/Tx ns3::UanHeaderCommon (UAN src=1 dest=0 type=1Protocol Number=1) Payload (size=105)
r 61.8396 /NodeList/3/DeviceList/0/$ns3::UanNetDevice/Phy/RxOk ns3::UanHeaderCommon (UAN src=1 dest=0 type=1Protocol Number=1) Payload (size=105)
r 61.8677 /NodeList/0/DeviceList/0/$ns3::UanNetDevice/Phy/RxOk ns3::UanHeaderCommon (UAN src=1 dest=0 type=1Protocol Number=1) Payload (size=105)
r 61.901 /NodeList/2/DeviceList/0/$ns3::UanNetDevice/Phy/RxOk ns3::UanHeaderCommon (UAN src=1 dest=0 type=1Protocol Number=1) Payload (size=105)
r 61.9012 /NodeList/4/DeviceList/0/$ns3::UanNetDevice/Phy/RxOk ns3::UanHeaderCommon (UAN src=1 dest=0 type=1Protocol Number=1) Payload (size=105)
+ 104.744 /NodeList/0/DeviceList/0/$ns3::UanNetDevice/Phy/Tx ns3::UanHeaderCommon (UAN src=0 dest=2 type=2Protocol Number=1) ns3::Ipv4Header (tos 0x0 DSCP Default ECN Not-ECT ttl 64 id 4 protocol 17 offset (bytes) 0 flags [none] length: 137 10.1.2.1 > 10.1.2.3) ns3::UdpHeader (length: 117 49154 > 9) Payload (size=109) ns3::UanTrailer (fcs=0)
r 105.348 /NodeList/3/DeviceList/0/$ns3::UanNetDevice/Phy/RxOk ns3::UanHeaderCommon (UAN src=0 dest=2 type=2Protocol Number=1) ns3::Ipv4Header (tos 0x0 DSCP Default ECN Not-ECT ttl 64 id 4 protocol 17 offset (bytes) 0 flags [none] length: 137 10.1.2.1 > 10.1.2.3) ns3::UdpHeader (length: 117 49154 > 9) Payload (size=109) ns3::UanTrailer (fcs=0)
r 105.353 /NodeList/1/DeviceList/0/$ns3::UanNetDevice/Phy/RxOk ns3::UanHeaderCommon (UAN src=0 dest=2 type=2Protocol Number=1) ns3::Ipv4Header (tos 0x0 DSCP Default ECN Not-ECT ttl 64 id 4 protocol 17 offset (bytes) 0 flags [none] length: 137 10.1.2.1 > 10.1.2.3) ns3::UdpHeader (length: 117 49154 > 9) Payload (size=109) ns3::UanTrailer (fcs=0)
r 105.39 /NodeList/4/DeviceList/0/$ns3::UanNetDevice/Phy/RxOk ns3::UanHeaderCommon (UAN src=0 dest=2 type=2Protocol Number=1) ns3::Ipv4Header (tos 0x0 DSCP Default ECN Not-ECT ttl 64 id 4 protocol 17 offset (bytes) 0 flags [none] length: 137 10.1.2.1 > 10.1.2.3) ns3::UdpHeader (length: 117 49154 > 9) Payload (size=109) ns3::UanTrailer (fcs=0)
r 105.392 /NodeList/2/DeviceList/0/$ns3::UanNetDevice/Phy/RxOk ns3::UanHeaderCommon (UAN src=0 dest=2 type=2Protocol Number=1) ns3::Ipv4Header (tos 0x0 DSCP Default ECN Not-ECT ttl 64 id 4 protocol 17 offset (bytes) 0 flags [none] length: 137 10.1.2.1 > 10.1.2.3) ns3::UdpHeader (length: 117 49154 > 9) Payload (size=109) ns3::UanTrailer (fcs=0)
+ 106.392 /NodeList/2/DeviceList/0/$ns3::UanNetDevice/Phy/Tx ns3::UanHeaderCommon (UAN src=2 dest=0 type=1Protocol Number=1) Payload (size=105)
r 106.829 /NodeList/4/DeviceList/0/$ns3::UanNetDevice/Phy/RxOk ns3::UanHeaderCommon (UAN src=2 dest=0 type=1Protocol Number=1) Payload (size=105)
r 106.891 /NodeList/1/DeviceList/0/$ns3::UanNetDevice/Phy/RxOk ns3::UanHeaderCommon (UAN src=2 dest=0 type=1Protocol Number=1) Payload (size=105)
r 106.891 /NodeList/3/DeviceList/0/$ns3::UanNetDevice/Phy/RxOk ns3::UanHeaderCommon (UAN src=2 dest=0 type=1Protocol Number=1) Payload (size=105)
r 106.896 /NodeList/0/DeviceList/0/$ns3::UanNetDevice/Phy/RxOk ns3::UanHeaderCommon (UAN src=2 dest=0 type=1Protocol Number=1) Payload (size=105)
+ 137.863 /NodeList/0/DeviceList/0/$ns3::UanNetDevice/Phy/Tx ns3::UanHeaderCommon (UAN src=0 dest=255 type=2Protocol Number=2) ns3::ArpHeader (request source mac: 00-01-00 source ipv4: 10.1.2.1 dest ipv4: 10.1.2.2) ns3::UanTrailer (fcs=0)
r 137.991 /NodeList/3/DeviceList/0/$ns3::UanNetDevice/Phy/RxOk ns3::UanHeaderCommon (UAN src=0 dest=255 type=2Protocol Number=2) ns3::ArpHeader (request source mac: 00-01-00 source ipv4: 10.1.2.1 dest ipv4: 10.1.2.2) ns3::UanTrailer (fcs=0)
r 137.996 /NodeList/1/DeviceList/0/$ns3::UanNetDevice/Phy/RxOk ns3::UanHeaderCommon (UAN src=0 dest=255 type=2Protocol Number=2) ns3::ArpHeader (request source mac: 00-01-00 source ipv4: 10.1.2.1 dest ipv4: 10.1.2.2) ns3::UanTrailer (fcs=0)
+ 137.996 /NodeList/1/DeviceList/0/$ns3::UanNetDevice/Phy/Tx ns3::UanHeaderCommon (UAN src=1 dest=0 type=2Protocol Number=2) ns3::ArpHeader (reply source mac: 00-01-01 source ipv4: 10.1.2.2 dest mac: 00-01-00 dest ipv4: 10.1.2.1) ns3::UanTrailer (fcs=0)
r 138.032 /NodeList/4/DeviceList/0/$ns3::UanNetDevice/Phy/RxOk ns3::UanHeaderCommon (UAN src=0 dest=255 type=2Protocol Number=2) ns3::ArpHeader (request source mac: 00-01-00 source ipv4: 10.1.2.1 dest ipv4: 10.1.2.2) ns3::UanTrailer (fcs=0)
r 138.035 /NodeList/2/DeviceList/0/$ns3::UanNetDevice/Phy/RxOk ns3::UanHeaderCommon (UAN src=0 dest=255 type=2Protocol Number=2) ns3::ArpHeader (request source mac: 00-01-00 source ipv4: 10.1.2.1 dest ipv4: 10.1.2.2) ns3::UanTrailer (fcs=0)
r 138.101 /NodeList/3/DeviceList/0/$ns3::UanNetDevice/Phy/RxOk ns3::UanHeaderCommon (UAN src=1 dest=0 type=2Protocol Number=2) ns3::ArpHeader (reply source mac: 00-01-01 source ipv4: 10.1.2.2 dest mac: 00-01-00 dest ipv4: 10.1.2.1) ns3::UanTrailer (fcs=0)
r 138.129 /NodeList/0/DeviceList/0/$ns3::UanNetDevice/Phy/RxOk ns3::UanHeaderCommon (UAN src=1 dest=0 type=2Protocol Number=2) ns3::ArpHeader (reply source mac: 00-01-01 source ipv4: 10.1.2.2 dest mac: 00-01-00 dest ipv4: 10.1.2.1) ns3::UanTrailer (fcs=0)
+ 138.129 /NodeList/0/DeviceList/0/$ns3::UanNetDevice/Phy/Tx ns3::UanHeaderCommon (UAN src=0 dest=1 type=2Protocol Number=1) ns3::Ipv4Header (tos 0x0 DSCP Default ECN Not-ECT ttl 64 id 3 protocol 17 offset (bytes) 0 flags [none] length: 138 10.1.2.1 > 10.1.2.2) ns3::UdpHeader (length: 118 49153 > 9) Payload (size=110) ns3::UanTrailer (fcs=0)
r 138.163 /NodeList/2/DeviceList/0/$ns3::UanNetDevice/Phy/RxOk ns3::UanHeaderCommon (UAN src=1 dest=0 type=2Protocol Number=2) ns3::ArpHeader (reply source mac: 00-01-01 source ipv4: 10.1.2.2 dest mac: 00-01-00 dest ipv4: 10.1.2.1) ns3::UanTrailer (fcs=0)
r 138.163 /NodeList/4/DeviceList/0/$ns3::UanNetDevice/Phy/RxOk ns3::UanHeaderCommon (UAN src=1 dest=0 type=2Protocol Number=2) ns3::ArpHeader (reply source mac: 00-01-01 source ipv4: 10.1.2.2 dest mac: 00-01-00 dest ipv4: 10.1.2.1) ns3::UanTrailer (fcs=0)
r 138.738 /NodeList/3/DeviceList/0/$ns3::UanNetDevice/Phy/RxOk ns3::UanHeaderCommon (UAN src=0 dest=1 type=2Protocol Number=1) ns3::Ipv4Header (tos 0x0 DSCP Default ECN Not-ECT ttl 64 id 3 protocol 17 offset (bytes) 0 flags [none] length: 138 10.1.2.1 > 10.1.2.2) ns3::UdpHeader (length: 118 49153 > 9) Payload (size=110) ns3::UanTrailer (fcs=0)
r 138.743 /NodeList/1/DeviceList/0/$ns3::UanNetDevice/Phy/RxOk ns3::UanHeaderCommon (UAN src=0 dest=1 type=2Protocol Number=1) ns3::Ipv4Header (tos 0x0 DSCP Default ECN Not-ECT ttl 64 id 3 protocol 17 offset (bytes) 0 flags [none] length: 138 10.1.2.1 > 10.1.2.2) ns3::UdpHeader (length: 118 49153 > 9) Payload (size=110) ns3::UanTrailer (fcs=0)
r 138.779 /NodeList/4/DeviceList/0/$ns3::UanNetDevice/Phy/RxOk ns3::UanHeaderCommon (UAN src=0 dest=1 type=2Protocol Number=1) ns3::Ipv4Header (tos 0x0 DSCP Default ECN Not-ECT ttl 64 id 3 protocol 17 offset (bytes) 0 flags [none] length: 138 10.1.2.1 > 10.1.2.2) ns3::UdpHeader (length: 118 49153 > 9) Payload (size=110) ns3::UanTrailer (fcs=0)
r 138.782 /NodeList/2/DeviceList/0/$ns3::UanNetDevice/Phy/RxOk ns3::UanHeaderCommon (UAN src=0 dest=1 type=2Protocol Number=1) ns3::Ipv4Header (tos 0x0 DSCP Default ECN Not-ECT ttl 64 id 3 protocol 17 offset (bytes) 0 flags [none] length: 138 10.1.2.1 > 10.1.2.2) ns3::UdpHeader (length: 118 49153 > 9) Payload (size=110) ns3::UanTrailer (fcs=0)
+ 139.743 /NodeList/1/DeviceList/0/$ns3::UanNetDevice/Phy/Tx ns3::UanHeaderCommon (UAN src=1 dest=0 type=1Protocol Number=1) Payload (size=105)
r 140.18 /NodeList/3/DeviceList/0/$ns3::UanNetDevice/Phy/RxOk ns3::UanHeaderCommon (UAN src=1 dest=0 type=1Protocol Number=1) Payload (size=105)
r 140.208 /NodeList/0/DeviceList/0/$ns3::UanNetDevice/Phy/RxOk ns3::UanHeaderCommon (UAN src=1 dest=0 type=1Protocol Number=1) Payload (size=105)
r 140.242 /NodeList/2/DeviceList/0/$ns3::UanNetDevice/Phy/RxOk ns3::UanHeaderCommon (UAN src=1 dest=0 type=1Protocol Number=1) Payload (size=105)
r 140.242 /NodeList/4/DeviceList/0/$ns3::UanNetDevice/Phy/RxOk ns3::UanHeaderCommon (UAN src=1 dest=0 type=1Protocol Number=1) Payload (size=105)
+ 163.439 /NodeList/0/DeviceList/0/$ns3::UanNetDevice/Phy/Tx ns3::UanHeaderCommon (UAN src=0 dest=1 type=2Protocol Number=1) ns3::Ipv4Header (tos 0x0 DSCP Default ECN Not-ECT ttl 64 id 5 protocol 17 offset (bytes) 0 flags [none] length: 138 10.1.2.1 > 10.1.2.2) ns3::UdpHeader (length: 118 49153 > 9) Payload (size=110) ns3::UanTrailer (fcs=0)
r 164.047 /NodeList/3/DeviceList/0/$ns3::UanNetDevice/Phy/RxOk ns3::UanHeaderCommon (UAN src=0 dest=1 type=2Protocol Number=1) ns3::Ipv4Header (tos 0x0 DSCP Default ECN Not-ECT ttl 64 id 5 protocol 17 offset (bytes) 0 flags [none] length: 138 10.1.2.1 > 10.1.2.2) ns3::UdpHeader (length: 118 49153 > 9) Payload (size=110) ns3::UanTrailer (fcs=0)
r 164.053 /NodeList/1/DeviceList/0/$ns3::UanNetDevice/Phy/RxOk ns3::UanHeaderCommon (UAN src=0 dest=1 type=2Protocol Number=1) ns3::Ipv4Header (tos 0x0 DSCP Default ECN Not-ECT ttl 64 id 5 protocol 17 offset (bytes) 0 flags [none] length: 138 10.1.2.1 > 10.1.2.2) ns3::UdpHeader (length: 118 49153 > 9) Payload (size=110) ns3::UanTrailer (fcs=0)
r 164.089 /NodeList/4/DeviceList/0/$ns3::UanNetDevice/Phy/RxOk ns3::UanHeaderCommon (UAN src=0 dest=1 type=2Protocol Number=1) ns3::Ipv4Header (tos 0x0 DSCP Default ECN Not-ECT ttl 64 id 5 protocol 17 offset (bytes) 0 flags [none] length: 138 10.1.2.1 > 10.1.2.2) ns3::UdpHeader (length: 118 49153 > 9) Payload (size=110) ns3::UanTrailer (fcs=0)
r 164.091 /NodeList/2/DeviceList/0/$ns3::UanNetDevice/Phy/RxOk ns3::UanHeaderCommon (UAN src=0 dest=1 type=2Protocol Number=1) ns3::Ipv4Header (tos 0x0 DSCP Default ECN Not-ECT ttl 64 id 5 protocol 17 offset (bytes) 0 flags [none] length: 138 10.1.2.1 > 10.1.2.2) ns3::UdpHeader (length: 118 49153 > 9) Payload (size=110) ns3::UanTrailer (fcs=0)
+ 165.053 /NodeList/1/DeviceList/0/$ns3::UanNetDevice/Phy/Tx ns3::UanHeaderCommon (UAN src=1 dest=0 type=1Protocol Number=1) Payload (size=105)
r 165.49 /NodeList/3/DeviceList/0/$ns3::UanNetDevice/Phy/RxOk ns3::UanHeaderCommon (UAN src=1 dest=0 type=1Protocol Number=1) Payload (size=105)
r 165.518 /NodeList/0/DeviceList/0/$ns3::UanNetDevice/Phy/RxOk ns3::UanHeaderCommon (UAN src=1 dest=0 type=1Protocol Number=1) Payload (size=105)
r 165.551 /NodeList/2/DeviceList/0/$ns3::UanNetDevice/Phy/RxOk ns3::UanHeaderCommon (UAN src=1 dest=0 type=1Protocol Number=1) Payload (size=105)
r 165.551 /NodeList/4/DeviceList/0/$ns3::UanNetDevice/Phy/RxOk ns3::UanHeaderCommon (UAN src=1 dest=0 type=1Protocol Number=1) Payload (size=105)
+ 173.054 /NodeList/0/DeviceList/0/$ns3::UanNetDevice/Phy/Tx ns3::UanHeaderCommon (UAN src=0 dest=1 type=2Protocol Number=1) ns3::Ipv4Header (tos 0x0 DSCP Default ECN Not-ECT ttl 64 id 6 protocol 17 offset (bytes) 0 flags [none] length: 138 10.1.2.1 > 10.1.2.2) ns3::UdpHeader (length: 118 49153 > 9) Payload (size=110) ns3::UanTrailer (fcs=0)
r 173.662 /NodeList/3/DeviceList/0/$ns3::UanNetDevice/Phy/RxOk ns3::UanHeaderCommon (UAN src=0 dest=1 type=2Protocol Number=1) ns3::Ipv4Header (tos 0x0 DSCP Default ECN Not-ECT ttl 64 id 6 protocol 17 offset (bytes) 0 flags [none] length: 138 10.1.2.1 > 10.1.2.2) ns3::UdpHeader (length: 118 49153 > 9) Payload (size=110) ns3::UanTrailer (fcs=0)