+ 18.66 /NodeList/0/DeviceList/0/$ns3::UanNetDevice/Phy/Tx ns3::UanHeaderCommon (UAN src=0 dest=2 type=0Protocol Number=0) Payload (size=1020)
+ 18.66 /NodeList/1/DeviceList/0/$ns3::UanNetDevice/Phy/Tx ns3::UanHeaderCommon (UAN src=1 dest=2 type=0Protocol Number=0) Payload (size=1020)
r 33.3632 /NodeList/2/DeviceList/0/$ns3::UanNetDevice/Phy/RxOk ns3::UanHeaderCommon (UAN src=70 dest=22 type=10Protocol Number=9) Payload (size=1024)
+ 34.821 /NodeList/0/DeviceList/0/$ns3::UanNetDevice/Phy/Tx ns3::UanHeaderCommon (UAN src=0 dest=2 type=0Protocol Number=0) Payload (size=1020)
r 44.7314 /NodeList/2/DeviceList/0/$ns3::UanNetDevice/Phy/RxOk ns3::UanHeaderCommon (UAN src=0 dest=2 type=0Protocol Number=0) Payload (size=1024)
