+ 12.8333 /NodeList/1/DeviceList/0/$ns3::UanNetDevice/Phy/Tx ns3::UanHeaderCommon (UAN src=1 dest=2 type=0Protocol Number=0) Payload (size=1200)
r 18.2507 /NodeList/2/DeviceList/0/$ns3::UanNetDevice/Phy/RxOk ns3::UanHeaderCommon (UAN src=1 dest=2 type=0Protocol Number=0) Payload (size=1024)
r 22.192 /NodeList/0/DeviceList/0/$ns3::UanNetDevice/Phy/RxOk ns3::UanHeaderCommon (UAN src=1 dest=2 type=0Protocol Number=0) Payload (size=1024)
+ 23.1667 /NodeList/1/DeviceList/0/$ns3::UanNetDevice/Phy/Tx ns3::UanHeaderCommon (UAN src=1 dest=2 type=0Protocol Number=0) Payload (size=1200)
r 30.6661 /NodeList/2/DeviceList/0/$ns3::UanNetDevice/Phy/RxOk ns3::UanHeaderCommon (UAN src=1 dest=2 type=0Protocol Number=0) Payload (size=1024)
r 32.7403 /NodeList/0/DeviceList/0/$ns3::UanNetDevice/Phy/RxOk ns3::UanHeaderCommon (UAN src=1 dest=2 type=0Protocol Number=0) Payload (size=1024)
+ 33.5 /NodeList/1/DeviceList/0/$ns3::UanNetDevice/Phy/Tx ns3::UanHeaderCommon (UAN src=1 dest=2 type=0Protocol Number=0) Payload (size=1200)
r 40.3995 /NodeList/2/DeviceList/0/$ns3::UanNetDevice/Phy/RxOk ns3::UanHeaderCommon (UAN src=1 dest=2 type=0Protocol Number=0) Payload (size=1024)
r 42.8752 /NodeList/0/DeviceList/0/$ns3::UanNetDevice/Phy/RxOk ns3::UanHeaderCommon (UAN src=1 dest=2 type=0Protocol Number=0) Payload (size=1024)
+ 44.8333 /NodeList/1/DeviceList/0/$ns3::UanNetDevice/Phy/Tx ns3::UanHeaderCommon (UAN src=1 dest=2 type=0Protocol Number=0) Payload (size=1200)
r 52.2691 /NodeList/2/DeviceList/0/$ns3::UanNetDevice/Phy/RxOk ns3::UanHeaderCommon (UAN src=1 dest=2 type=0Protocol Number=0) Payload (size=1024)
r 54.222 /NodeList/0/DeviceList/0/$ns3::UanNetDevice/Phy/RxOk ns3::UanHeaderCommon (UAN src=1 dest=2 type=0Protocol Number=0) Payload (size=1024)
+ 55.1667 /NodeList/1/DeviceList/0/$ns3::UanNetDevice/Phy/Tx ns3::UanHeaderCommon (UAN src=1 dest=2 type=0Protocol Number=0) Payload (size=1200)
r 63.0745 /NodeList/2/DeviceList/0/$ns3::UanNetDevice/Phy/RxOk ns3::UanHeaderCommon (UAN src=1 dest=2 type=0Protocol Number=0) Payload (size=1024)
