+ 39.3571 /NodeList/0/DeviceList/0/$ns3::UanNetDevice/Phy/Tx ns3::UanHeaderNew (UAN src=0 dest=4 type=2Protocol Number=0 Uid=65535) Payload (size=220)
r 41.6098 /NodeList/3/DeviceList/0/$ns3::UanNetDevice/Phy/RxOk ns3::UanHeaderCommon (UAN src=0 dest=4 type=2Protocol Number=0) Payload (size=117)
r 41.8804 /NodeList/2/DeviceList/0/$ns3::UanNetDevice/Phy/RxOk ns3::UanHeaderCommon (UAN src=0 dest=4 type=2Protocol Number=0) Payload (size=117)
r 41.8911 /NodeList/1/DeviceList/0/$ns3::UanNetDevice/Phy/RxOk ns3::UanHeaderCommon (UAN src=0 dest=4 type=2Protocol Number=0) Payload (size=117)
r 42.3901 /NodeList/4/DeviceList/0/$ns3::UanNetDevice/Phy/RxOk ns3::UanHeaderCommon (UAN src=0 dest=4 type=2Protocol Number=0) Payload (size=117)
+ 42.3901 /NodeList/4/DeviceList/0/$ns3::UanNetDevice/Phy/Tx ns3::UanHeaderNew (UAN src=4 dest=0 type=3Protocol Number=0 Uid=65535) Payload (size=220)
r 44.6567 /NodeList/3/DeviceList/0/$ns3::UanNetDevice/Phy/RxOk ns3::UanHeaderCommon (UAN src=4 dest=0 type=3Protocol Number=0) Payload (size=117)
r 44.8816 /NodeList/2/DeviceList/0/$ns3::UanNetDevice/Phy/RxOk ns3::UanHeaderCommon (UAN src=4 dest=0 type=3Protocol Number=0) Payload (size=117)
r 45.9139 /NodeList/1/DeviceList/0/$ns3::UanNetDevice/Phy/RxOk ns3::UanHeaderCommon (UAN src=4 dest=0 type=3Protocol Number=0) Payload (size=117)
r 45.9181 /NodeList/0/DeviceList/0/$ns3::UanNetDevice/Phy/RxOk ns3::UanHeaderCommon (UAN src=4 dest=0 type=3Protocol Number=0) Payload (size=117)
+ 59.1172 /NodeList/3/DeviceList/0/$ns3::UanNetDevice/Phy/Tx ns3::UanHeaderNew (UAN src=3 dest=4 type=2Protocol Number=0 Uid=65535) Payload (size=220)
r 61.5801 /NodeList/0/DeviceList/0/$ns3::UanNetDevice/Phy/RxOk ns3::UanHeaderCommon (UAN src=3 dest=4 type=2Protocol Number=0) Payload (size=117)
r 61.5979 /NodeList/2/DeviceList/0/$ns3::UanNetDevice/Phy/RxOk ns3::UanHeaderCommon (UAN src=3 dest=4 type=2Protocol Number=0) Payload (size=117)
r 61.6601 /NodeList/1/DeviceList/0/$ns3::UanNetDevice/Phy/RxOk ns3::UanHeaderCommon (UAN src=3 dest=4 type=2Protocol Number=0) Payload (size=117)
r 62.1274 /NodeList/4/DeviceList/0/$ns3::UanNetDevice/Phy/RxOk ns3::UanHeaderCommon (UAN src=3 dest=4 type=2Protocol Number=0) Payload (size=117)
+ 62.1274 /NodeList/4/DeviceList/0/$ns3::UanNetDevice/Phy/Tx ns3::UanHeaderNew (UAN src=4 dest=3 type=3Protocol Number=0 Uid=65535) Payload (size=220)
r 64.4002 /NodeList/3/DeviceList/0/$ns3::UanNetDevice/Phy/RxOk ns3::UanHeaderCommon (UAN src=4 dest=3 type=3Protocol Number=0) Payload (size=117)
r 64.6231 /NodeList/2/DeviceList/0/$ns3::UanNetDevice/Phy/RxOk ns3::UanHeaderCommon (UAN src=4 dest=3 type=3Protocol Number=0) Payload (size=117)
r 65.1631 /NodeList/1/DeviceList/0/$ns3::UanNetDevice/Phy/RxOk ns3::UanHeaderCommon (UAN src=4 dest=3 type=3Protocol Number=0) Payload (size=117)
r 65.6557 /NodeList/0/DeviceList/0/$ns3::UanNetDevice/Phy/RxOk ns3::UanHeaderCommon (UAN src=4 dest=3 type=3Protocol Number=0) Payload (size=117)
+ 82.1867 /NodeList/1/DeviceList/0/$ns3::UanNetDevice/Phy/Tx ns3::UanHeaderNew (UAN src=1 dest=4 type=2Protocol Number=0 Uid=65535) Payload (size=220)
r 84.4857 /NodeList/3/DeviceList/0/$ns3::UanNetDevice/Phy/RxOk ns3::UanHeaderCommon (UAN src=1 dest=4 type=2Protocol Number=0) Payload (size=117)
r 84.698 /NodeList/2/DeviceList/0/$ns3::UanNetDevice/Phy/RxOk ns3::UanHeaderCommon (UAN src=1 dest=4 type=2Protocol Number=0) Payload (size=117)
r 84.7446 /NodeList/0/DeviceList/0/$ns3::UanNetDevice/Phy/RxOk ns3::UanHeaderCommon (UAN src=1 dest=4 type=2Protocol Number=0) Payload (size=117)
r 85.7095 /NodeList/4/DeviceList/0/$ns3::UanNetDevice/Phy/RxOk ns3::UanHeaderCommon (UAN src=1 dest=4 type=2Protocol Number=0) Payload (size=117)
+ 85.7095 /NodeList/4/DeviceList/0/$ns3::UanNetDevice/Phy/Tx ns3::UanHeaderNew (UAN src=4 dest=1 type=3Protocol Number=0 Uid=65535) Payload (size=220)
r 87.9828 /NodeList/3/DeviceList/0/$ns3::UanNetDevice/Phy/RxOk ns3::UanHeaderCommon (UAN src=4 dest=1 type=3Protocol Number=0) Payload (size=117)
r 88.2026 /NodeList/2/DeviceList/0/$ns3::UanNetDevice/Phy/RxOk ns3::UanHeaderCommon (UAN src=4 dest=1 type=3Protocol Number=0) Payload (size=117)
r 88.7292 /NodeList/1/DeviceList/0/$ns3::UanNetDevice/Phy/RxOk ns3::UanHeaderCommon (UAN src=4 dest=1 type=3Protocol Number=0) Payload (size=117)
r 89.2249 /NodeList/0/DeviceList/0/$ns3::UanNetDevice/Phy/RxOk ns3::UanHeaderCommon (UAN src=4 dest=1 type=3Protocol Number=0) Payload (size=117)
+ 123.074 /NodeList/2/DeviceList/0/$ns3::UanNetDevice/Phy/Tx ns3::UanHeaderNew (UAN src=2 dest=4 type=2Protocol Number=0 Uid=65535) Payload (size=220)
r 125.559 /NodeList/4/DeviceList/0/$ns3::UanNetDevice/Phy/RxOk ns3::UanHeaderCommon (UAN src=2 dest=4 type=2Protocol Number=0) Payload (size=117)
+ 125.559 /NodeList/4/DeviceList/0/$ns3::UanNetDevice/Phy/Tx ns3::UanHeaderNew (UAN src=4 dest=2 type=3Protocol Number=0 Uid=65535) Payload (size=220)
r 125.587 /NodeList/0/DeviceList/0/$ns3::UanNetDevice/Phy/RxOk ns3::UanHeaderCommon (UAN src=2 dest=4 type=2Protocol Number=0) Payload (size=117)
r 125.785 /NodeList/3/DeviceList/0/$ns3::UanNetDevice/Phy/RxOk ns3::UanHeaderCommon (UAN src=2 dest=4 type=2Protocol Number=0) Payload (size=117)
r 126.129 /NodeList/1/DeviceList/0/$ns3::UanNetDevice/Phy/RxOk ns3::UanHeaderCommon (UAN src=2 dest=4 type=2Protocol Number=0) Payload (size=117)
r 127.829 /NodeList/3/DeviceList/0/$ns3::UanNetDevice/Phy/RxOk ns3::UanHeaderCommon (UAN src=4 dest=2 type=3Protocol Number=0) Payload (size=117)
r 128.044 /NodeList/2/DeviceList/0/$ns3::UanNetDevice/Phy/RxOk ns3::UanHeaderCommon (UAN src=4 dest=2 type=3Protocol Number=0) Payload (size=117)
r 129.071 /NodeList/0/DeviceList/0/$ns3::UanNetDevice/Phy/RxOk ns3::UanHeaderCommon (UAN src=4 dest=2 type=3Protocol Number=0) Payload (size=117)
r 129.095 /NodeList/1/DeviceList/0/$ns3::UanNetDevice/Phy/RxOk ns3::UanHeaderCommon (UAN src=4 dest=2 type=3Protocol Number=0) Payload (size=117)
+ 162.39 /NodeList/4/DeviceList/0/$ns3::UanNetDevice/Phy/Tx ns3::UanHeaderNew (UAN src=4 dest=0 type=4Protocol Number=0 Uid=65535) Payload (size=220)
r 164.651 /NodeList/3/DeviceList/0/$ns3::UanNetDevice/Phy/RxOk ns3::UanHeaderCommon (UAN src=4 dest=0 type=4Protocol Number=0) Payload (size=117)
r 165.37 /NodeList/2/DeviceList/0/$ns3::UanNetDevice/Phy/RxOk ns3::UanHeaderCommon (UAN src=4 dest=0 type=4Protocol Number=0) Payload (size=117)
r 165.909 /NodeList/0/DeviceList/0/$ns3::UanNetDevice/Phy/RxOk ns3::UanHeaderCommon (UAN src=4 dest=0 type=4Protocol Number=0) Payload (size=117)
+ 165.909 /NodeList/0/DeviceList/0/$ns3::UanNetDevice/Phy/Tx ns3::UanHeaderNew (UAN src=0 dest=4 type=6Protocol Number=0 Uid=0) Payload (size=251)
r 165.924 /NodeList/1/DeviceList/0/$ns3::UanNetDevice/Phy/RxOk ns3::UanHeaderCommon (UAN src=4 dest=0 type=4Protocol Number=0) Payload (size=117)
+ 167.05 /NodeList/0/DeviceList/0/$ns3::UanNetDevice/Phy/Tx ns3::UanHeaderNew (UAN src=0 dest=4 type=6Protocol Number=0 Uid=1) Payload (size=251)
r 168.168 /NodeList/3/DeviceList/0/$ns3::UanNetDevice/Phy/RxOk ns3::UanHeaderCommon (UAN src=0 dest=4 type=6Protocol Number=0) Payload (size=117)
r 168.425 /NodeList/2/DeviceList/0/$ns3::UanNetDevice/Phy/RxOk ns3::UanHeaderCommon (UAN src=0 dest=4 type=6Protocol Number=0) Payload (size=117)
r 168.443 /NodeList/1/DeviceList/0/$ns3::UanNetDevice/Phy/RxOk ns3::UanHeaderCommon (UAN src=0 dest=4 type=6Protocol Number=0) Payload (size=117)
r 168.951 /NodeList/4/DeviceList/0/$ns3::UanNetDevice/Phy/RxOk ns3::UanHeaderCommon (UAN src=0 dest=4 type=6Protocol Number=0) Payload (size=117)
+ 169.05 /NodeList/0/DeviceList/0/$ns3::UanNetDevice/Phy/Tx ns3::UanHeaderNew (UAN src=0 dest=4 type=6Protocol Number=0 Uid=2) Payload (size=251)
r 169.896 /NodeList/3/DeviceList/0/$ns3::UanNetDevice/Phy/RxOk ns3::UanHeaderCommon (UAN src=0 dest=4 type=6Protocol Number=0) Payload (size=117)
r 170.154 /NodeList/2/DeviceList/0/$ns3::UanNetDevice/Phy/RxOk ns3::UanHeaderCommon (UAN src=0 dest=4 type=6Protocol Number=0) Payload (size=117)
r 170.169 /NodeList/1/DeviceList/0/$ns3::UanNetDevice/Phy/RxOk ns3::UanHeaderCommon (UAN src=0 dest=4 type=6Protocol Number=0) Payload (size=117)
r 170.806 /NodeList/4/DeviceList/0/$ns3::UanNetDevice/Phy/RxOk ns3::UanHeaderCommon (UAN src=0 dest=4 type=6Protocol Number=0) Payload (size=117)
+ 171.05 /NodeList/0/DeviceList/0/$ns3::UanNetDevice/Phy/Tx ns3::UanHeaderNew (UAN src=0 dest=4 type=6Protocol Number=0 Uid=3) Payload (size=251)
r 171.623 /NodeList/3/DeviceList/0/$ns3::UanNetDevice/Phy/RxOk ns3::UanHeaderCommon (UAN src=0 dest=4 type=6Protocol Number=0) Payload (size=117)
r 171.882 /NodeList/2/DeviceList/0/$ns3::UanNetDevice/Phy/RxOk ns3::UanHeaderCommon (UAN src=0 dest=4 type=6Protocol Number=0) Payload (size=117)
r 171.891 /NodeList/1/DeviceList/0/$ns3::UanNetDevice/Phy/RxOk ns3::UanHeaderCommon (UAN src=0 dest=4 type=6Protocol Number=0) Payload (size=117)
r 172.64 /NodeList/4/DeviceList/0/$ns3::UanNetDevice/Phy/RxOk ns3::UanHeaderCommon (UAN src=0 dest=4 type=6Protocol Number=0) Payload (size=117)
r 173.352 /NodeList/3/DeviceList/0/$ns3::UanNetDevice/Phy/RxOk ns3::UanHeaderCommon (UAN src=0 dest=4 type=6Protocol Number=0) Payload (size=117)
r 173.606 /NodeList/2/DeviceList/0/$ns3::UanNetDevice/Phy/RxOk ns3::UanHeaderCommon (UAN src=0 dest=4 type=6Protocol Number=0) Payload (size=117)
r 173.629 /NodeList/1/DeviceList/0/$ns3::UanNetDevice/Phy/RxOk ns3::UanHeaderCommon (UAN src=0 dest=4 type=6Protocol Number=0) Payload (size=117)
+ 174.39 /NodeList/4/DeviceList/0/$ns3::UanNetDevice/Phy/Tx ns3::UanHeaderNew (UAN src=4 dest=1 type=4Protocol Number=0 Uid=65535) Payload (size=220)
r 174.465 /NodeList/4/DeviceList/0/$ns3::UanNetDevice/Phy/RxOk ns3::UanHeaderCommon (UAN src=0 dest=4 type=6Protocol Number=0) Payload (size=117)
r 176.735 /NodeList/3/DeviceList/0/$ns3::UanNetDevice/Phy/RxOk ns3::UanHeaderCommon (UAN src=4 dest=1 type=4Protocol Number=0) Payload (size=117)
r 176.948 /NodeList/2/DeviceList/0/$ns3::UanNetDevice/Phy/RxOk ns3::UanHeaderCommon (UAN src=4 dest=1 type=4Protocol Number=0) Payload (size=117)
r 177.994 /NodeList/0/DeviceList/0/$ns3::UanNetDevice/Phy/RxOk ns3::UanHeaderCommon (UAN src=4 dest=1 type=4Protocol Number=0) Payload (size=117)
r 178.019 /NodeList/1/DeviceList/0/$ns3::UanNetDevice/Phy/RxOk ns3::UanHeaderCommon (UAN src=4 dest=1 type=4Protocol Number=0) Payload (size=117)
+ 178.019 /NodeList/1/DeviceList/0/$ns3::UanNetDevice/Phy/Tx ns3::UanHeaderNew (UAN src=1 dest=4 type=6Protocol Number=0 Uid=0) Payload (size=251)
+ 179.05 /NodeList/1/DeviceList/0/$ns3::UanNetDevice/Phy/Tx ns3::UanHeaderNew (UAN src=1 dest=4 type=6Protocol Number=0 Uid=1) Payload (size=251)
r 180.323 /NodeList/3/DeviceList/0/$ns3::UanNetDevice/Phy/RxOk ns3::UanHeaderCommon (UAN src=1 dest=4 type=6Protocol Number=0) Payload (size=117)
r 180.576 /NodeList/0/DeviceList/0/$ns3::UanNetDevice/Phy/RxOk ns3::UanHeaderCommon (UAN src=1 dest=4 type=6Protocol Number=0) Payload (size=117)
r 181.045 /NodeList/2/DeviceList/0/$ns3::UanNetDevice/Phy/RxOk ns3::UanHeaderCommon (UAN src=1 dest=4 type=6Protocol Number=0) Payload (size=117)
+ 181.095 /NodeList/1/DeviceList/0/$ns3::UanNetDevice/Phy/Tx ns3::UanHeaderNew (UAN src=1 dest=4 type=6Protocol Number=0 Uid=2) Payload (size=251)
r 181.549 /NodeList/4/DeviceList/0/$ns3::UanNetDevice/Phy/RxOk ns3::UanHeaderCommon (UAN src=1 dest=4 type=6Protocol Number=0) Payload (size=117)
r 182.06 /NodeList/3/DeviceList/0/$ns3::UanNetDevice/Phy/RxOk ns3::UanHeaderCommon (UAN src=1 dest=4 type=6Protocol Number=0) Payload (size=117)
r 182.323 /NodeList/0/DeviceList/0/$ns3::UanNetDevice/Phy/RxOk ns3::UanHeaderCommon (UAN src=1 dest=4 type=6Protocol Number=0) Payload (size=117)
r 182.91 /NodeList/2/DeviceList/0/$ns3::UanNetDevice/Phy/RxOk ns3::UanHeaderCommon (UAN src=1 dest=4 type=6Protocol Number=0) Payload (size=117)
+ 183.05 /NodeList/1/DeviceList/0/$ns3::UanNetDevice/Phy/Tx ns3::UanHeaderNew (UAN src=1 dest=4 type=6Protocol Number=0 Uid=3) Payload (size=251)
r 183.777 /NodeList/3/DeviceList/0/$ns3::UanNetDevice/Phy/RxOk ns3::UanHeaderCommon (UAN src=1 dest=4 type=6Protocol Number=0) Payload (size=117)
r 183.897 /NodeList/4/DeviceList/0/$ns3::UanNetDevice/Phy/RxOk ns3::UanHeaderCommon (UAN src=1 dest=4 type=6Protocol Number=0) Payload (size=117)
r 184.039 /NodeList/0/DeviceList/0/$ns3::UanNetDevice/Phy/RxOk ns3::UanHeaderCommon (UAN src=1 dest=4 type=6Protocol Number=0) Payload (size=117)
r 185.274 /NodeList/2/DeviceList/0/$ns3::UanNetDevice/Phy/RxOk ns3::UanHeaderCommon (UAN src=1 dest=4 type=6Protocol Number=0) Payload (size=117)
r 185.502 /NodeList/3/DeviceList/0/$ns3::UanNetDevice/Phy/RxOk ns3::UanHeaderCommon (UAN src=1 dest=4 type=6Protocol Number=0) Payload (size=117)
r 185.773 /NodeList/0/DeviceList/0/$ns3::UanNetDevice/Phy/RxOk ns3::UanHeaderCommon (UAN src=1 dest=4 type=6Protocol Number=0) Payload (size=117)
r 186.247 /NodeList/4/DeviceList/0/$ns3::UanNetDevice/Phy/RxOk ns3::UanHeaderCommon (UAN src=1 dest=4 type=6Protocol Number=0) Payload (size=117)
+ 186.465 /NodeList/4/DeviceList/0/$ns3::UanNetDevice/Phy/Tx ns3::UanHeaderNew (UAN src=4 dest=2 type=4Protocol Number=0 Uid=65535) Payload (size=220)
r 186.612 /NodeList/2/DeviceList/0/$ns3::UanNetDevice/Phy/RxOk ns3::UanHeaderCommon (UAN src=1 dest=4 type=6Protocol Number=0) Payload (size=117)
r 188.733 /NodeList/3/DeviceList/0/$ns3::UanNetDevice/Phy/RxOk ns3::UanHeaderCommon (UAN src=4 dest=2 type=4Protocol Number=0) Payload (size=117)
r 188.951 /NodeList/2/DeviceList/0/$ns3::UanNetDevice/Phy/RxOk ns3::UanHeaderCommon (UAN src=4 dest=2 type=4Protocol Number=0) Payload (size=117)
+ 188.951 /NodeList/2/DeviceList/0/$ns3::UanNetDevice/Phy/Tx ns3::UanHeaderNew (UAN src=2 dest=4 type=6Protocol Number=0 Uid=0) Payload (size=251)
r 189.978 /NodeList/0/DeviceList/0/$ns3::UanNetDevice/Phy/RxOk ns3::UanHeaderCommon (UAN src=4 dest=2 type=4Protocol Number=0) Payload (size=117)
r 190.02 /NodeList/1/DeviceList/0/$ns3::UanNetDevice/Phy/RxOk ns3::UanHeaderCommon (UAN src=4 dest=2 type=4Protocol Number=0) Payload (size=117)
+ 190.07 /NodeList/2/DeviceList/0/$ns3::UanNetDevice/Phy/Tx ns3::UanHeaderNew (UAN src=2 dest=4 type=6Protocol Number=0 Uid=1) Payload (size=251)
r 191.439 /NodeList/4/DeviceList/0/$ns3::UanNetDevice/Phy/RxOk ns3::UanHeaderCommon (UAN src=2 dest=4 type=6Protocol Number=0) Payload (size=117)
r 191.669 /NodeList/3/DeviceList/0/$ns3::UanNetDevice/Phy/RxOk ns3::UanHeaderCommon (UAN src=2 dest=4 type=6Protocol Number=0) Payload (size=117)
r 191.961 /NodeList/0/DeviceList/0/$ns3::UanNetDevice/Phy/RxOk ns3::UanHeaderCommon (UAN src=2 dest=4 type=6Protocol Number=0) Payload (size=117)
r 192.038 /NodeList/1/DeviceList/0/$ns3::UanNetDevice/Phy/RxOk ns3::UanHeaderCommon (UAN src=2 dest=4 type=6Protocol Number=0) Payload (size=117)
+ 192.297 /NodeList/2/DeviceList/0/$ns3::UanNetDevice/Phy/Tx ns3::UanHeaderNew (UAN src=2 dest=4 type=6Protocol Number=0 Uid=2) Payload (size=251)
r 193.166 /NodeList/4/DeviceList/0/$ns3::UanNetDevice/Phy/RxOk ns3::UanHeaderCommon (UAN src=2 dest=4 type=6Protocol Number=0) Payload (size=117)
r 193.38 /NodeList/1/DeviceList/0/$ns3::UanNetDevice/Phy/RxOk ns3::UanHeaderCommon (UAN src=2 dest=4 type=6Protocol Number=0) Payload (size=117)
r 193.387 /NodeList/3/DeviceList/0/$ns3::UanNetDevice/Phy/RxOk ns3::UanHeaderCommon (UAN src=2 dest=4 type=6Protocol Number=0) Payload (size=117)
r 193.8 /NodeList/0/DeviceList/0/$ns3::UanNetDevice/Phy/RxOk ns3::UanHeaderCommon (UAN src=2 dest=4 type=6Protocol Number=0) Payload (size=117)
+ 194.05 /NodeList/2/DeviceList/0/$ns3::UanNetDevice/Phy/Tx ns3::UanHeaderNew (UAN src=2 dest=4 type=6Protocol Number=0 Uid=3) Payload (size=251)
r 194.901 /NodeList/4/DeviceList/0/$ns3::UanNetDevice/Phy/RxOk ns3::UanHeaderCommon (UAN src=2 dest=4 type=6Protocol Number=0) Payload (size=117)
r 195.106 /NodeList/3/DeviceList/0/$ns3::UanNetDevice/Phy/RxOk ns3::UanHeaderCommon (UAN src=2 dest=4 type=6Protocol Number=0) Payload (size=117)
r 195.482 /NodeList/1/DeviceList/0/$ns3::UanNetDevice/Phy/RxOk ns3::UanHeaderCommon (UAN src=2 dest=4 type=6Protocol Number=0) Payload (size=117)
r 195.647 /NodeList/0/DeviceList/0/$ns3::UanNetDevice/Phy/RxOk ns3::UanHeaderCommon (UAN src=2 dest=4 type=6Protocol Number=0) Payload (size=117)
+ 195.697 /NodeList/2/DeviceList/0/$ns3::UanNetDevice/Phy/Tx ns3::UanHeaderNew (UAN src=2 dest=4 type=6Protocol Number=0 Uid=4) Payload (size=251)
r 196.415 /NodeList/3/DeviceList/0/$ns3::UanNetDevice/Phy/RxOk ns3::UanHeaderCommon (UAN src=2 dest=4 type=6Protocol Number=0) Payload (size=117)
r 196.621 /NodeList/4/DeviceList/0/$ns3::UanNetDevice/Phy/RxOk ns3::UanHeaderCommon (UAN src=2 dest=4 type=6Protocol Number=0) Payload (size=117)
r 197.383 /NodeList/1/DeviceList/0/$ns3::UanNetDevice/Phy/RxOk ns3::UanHeaderCommon (UAN src=2 dest=4 type=6Protocol Number=0) Payload (size=117)
r 197.477 /NodeList/0/DeviceList/0/$ns3::UanNetDevice/Phy/RxOk ns3::UanHeaderCommon (UAN src=2 dest=4 type=6Protocol Number=0) Payload (size=117)
r 198.139 /NodeList/3/DeviceList/0/$ns3::UanNetDevice/Phy/RxOk ns3::UanHeaderCommon (UAN src=2 dest=4 type=6Protocol Number=0) Payload (size=117)
r 198.344 /NodeList/4/DeviceList/0/$ns3::UanNetDevice/Phy/RxOk ns3::UanHeaderCommon (UAN src=2 dest=4 type=6Protocol Number=0) Payload (size=117)
r 199.254 /NodeList/1/DeviceList/0/$ns3::UanNetDevice/Phy/RxOk ns3::UanHeaderCommon (UAN src=2 dest=4 type=6Protocol Number=0) Payload (size=117)
r 199.309 /NodeList/0/DeviceList/0/$ns3::UanNetDevice/Phy/RxOk ns3::UanHeaderCommon (UAN src=2 dest=4 type=6Protocol Number=0) Payload (size=117)
+ 210.344 /NodeList/4/DeviceList/0/$ns3::UanNetDevice/Phy/Tx ns3::UanHeaderNew (UAN src=4 dest=3 type=4Protocol Number=0 Uid=65535) Payload (size=220)
r 212.606 /NodeList/3/DeviceList/0/$ns3::UanNetDevice/Phy/RxOk ns3::UanHeaderCommon (UAN src=4 dest=3 type=4Protocol Number=0) Payload (size=117)
+ 212.606 /NodeList/3/DeviceList/0/$ns3::UanNetDevice/Phy/Tx ns3::UanHeaderNew (UAN src=3 dest=4 type=6Protocol Number=0 Uid=0) Payload (size=251)
r 212.836 /NodeList/2/DeviceList/0/$ns3::UanNetDevice/Phy/RxOk ns3::UanHeaderCommon (UAN src=4 dest=3 type=4Protocol Number=0) Payload (size=117)
r 213.364 /NodeList/1/DeviceList/0/$ns3::UanNetDevice/Phy/RxOk ns3::UanHeaderCommon (UAN src=4 dest=3 type=4Protocol Number=0) Payload (size=117)
r 213.85 /NodeList/0/DeviceList/0/$ns3::UanNetDevice/Phy/RxOk ns3::UanHeaderCommon (UAN src=4 dest=3 type=4Protocol Number=0) Payload (size=117)
+ 214.05 /NodeList/3/DeviceList/0/$ns3::UanNetDevice/Phy/Tx ns3::UanHeaderNew (UAN src=3 dest=4 type=6Protocol Number=0 Uid=1) Payload (size=251)
r 215.095 /NodeList/2/DeviceList/0/$ns3::UanNetDevice/Phy/RxOk ns3::UanHeaderCommon (UAN src=3 dest=4 type=6Protocol Number=0) Payload (size=117)
r 215.155 /NodeList/1/DeviceList/0/$ns3::UanNetDevice/Phy/RxOk ns3::UanHeaderCommon (UAN src=3 dest=4 type=6Protocol Number=0) Payload (size=117)
r 215.237 /NodeList/0/DeviceList/0/$ns3::UanNetDevice/Phy/RxOk ns3::UanHeaderCommon (UAN src=3 dest=4 type=6Protocol Number=0) Payload (size=117)
r 215.612 /NodeList/4/DeviceList/0/$ns3::UanNetDevice/Phy/RxOk ns3::UanHeaderCommon (UAN src=3 dest=4 type=6Protocol Number=0) Payload (size=117)
+ 216.05 /NodeList/3/DeviceList/0/$ns3::UanNetDevice/Phy/Tx ns3::UanHeaderNew (UAN src=3 dest=4 type=6Protocol Number=0 Uid=2) Payload (size=251)
r 216.799 /NodeList/0/DeviceList/0/$ns3::UanNetDevice/Phy/RxOk ns3::UanHeaderCommon (UAN src=3 dest=4 type=6Protocol Number=0) Payload (size=117)
r 216.81 /NodeList/2/DeviceList/0/$ns3::UanNetDevice/Phy/RxOk ns3::UanHeaderCommon (UAN src=3 dest=4 type=6Protocol Number=0) Payload (size=117)
r 216.871 /NodeList/1/DeviceList/0/$ns3::UanNetDevice/Phy/RxOk ns3::UanHeaderCommon (UAN src=3 dest=4 type=6Protocol Number=0) Payload (size=117)
r 217.439 /NodeList/4/DeviceList/0/$ns3::UanNetDevice/Phy/RxOk ns3::UanHeaderCommon (UAN src=3 dest=4 type=6Protocol Number=0) Payload (size=117)
+ 217.489 /NodeList/3/DeviceList/0/$ns3::UanNetDevice/Phy/Tx ns3::UanHeaderNew (UAN src=3 dest=4 type=6Protocol Number=0 Uid=3) Payload (size=251)
r 218.522 /NodeList/0/DeviceList/0/$ns3::UanNetDevice/Phy/RxOk ns3::UanHeaderCommon (UAN src=3 dest=4 type=6Protocol Number=0) Payload (size=117)
r 218.539 /NodeList/2/DeviceList/0/$ns3::UanNetDevice/Phy/RxOk ns3::UanHeaderCommon (UAN src=3 dest=4 type=6Protocol Number=0) Payload (size=117)
r 218.606 /NodeList/1/DeviceList/0/$ns3::UanNetDevice/Phy/RxOk ns3::UanHeaderCommon (UAN src=3 dest=4 type=6Protocol Number=0) Payload (size=117)
r 219.248 /NodeList/4/DeviceList/0/$ns3::UanNetDevice/Phy/RxOk ns3::UanHeaderCommon (UAN src=3 dest=4 type=6Protocol Number=0) Payload (size=117)
+ 219.298 /NodeList/3/DeviceList/0/$ns3::UanNetDevice/Phy/Tx ns3::UanHeaderNew (UAN src=3 dest=4 type=6Protocol Number=0 Uid=4) Payload (size=251)
r 220.251 /NodeList/0/DeviceList/0/$ns3::UanNetDevice/Phy/RxOk ns3::UanHeaderCommon (UAN src=3 dest=4 type=6Protocol Number=0) Payload (size=117)
r 220.269 /NodeList/2/DeviceList/0/$ns3::UanNetDevice/Phy/RxOk ns3::UanHeaderCommon (UAN src=3 dest=4 type=6Protocol Number=0) Payload (size=117)
r 220.34 /NodeList/1/DeviceList/0/$ns3::UanNetDevice/Phy/RxOk ns3::UanHeaderCommon (UAN src=3 dest=4 type=6Protocol Number=0) Payload (size=117)
r 221.604 /NodeList/4/DeviceList/0/$ns3::UanNetDevice/Phy/RxOk ns3::UanHeaderCommon (UAN src=3 dest=4 type=6Protocol Number=0) Payload (size=117)
r 221.979 /NodeList/0/DeviceList/0/$ns3::UanNetDevice/Phy/RxOk ns3::UanHeaderCommon (UAN src=3 dest=4 type=6Protocol Number=0) Payload (size=117)
r 221.994 /NodeList/2/DeviceList/0/$ns3::UanNetDevice/Phy/RxOk ns3::UanHeaderCommon (UAN src=3 dest=4 type=6Protocol Number=0) Payload (size=117)
r 222.054 /NodeList/1/DeviceList/0/$ns3::UanNetDevice/Phy/RxOk ns3::UanHeaderCommon (UAN src=3 dest=4 type=6Protocol Number=0) Payload (size=117)
r 223.443 /NodeList/4/DeviceList/0/$ns3::UanNetDevice/Phy/RxOk ns3::UanHeaderCommon (UAN src=3 dest=4 type=6Protocol Number=0) Payload (size=117)
+ 229.443 /NodeList/4/DeviceList/0/$ns3::UanNetDevice/Phy/Tx ns3::UanHeaderNew (UAN src=4 dest=255 type=5Protocol Number=0 Uid=65535) Payload (size=220)
r 231.72 /NodeList/3/DeviceList/0/$ns3::UanNetDevice/Phy/RxOk ns3::UanHeaderCommon (UAN src=4 dest=255 type=5Protocol Number=0) Payload (size=117)
r 231.934 /NodeList/2/DeviceList/0/$ns3::UanNetDevice/Phy/RxOk ns3::UanHeaderCommon (UAN src=4 dest=255 type=5Protocol Number=0) Payload (size=117)
r 232.451 /NodeList/0/DeviceList/0/$ns3::UanNetDevice/Phy/RxOk ns3::UanHeaderCommon (UAN src=4 dest=255 type=5Protocol Number=0) Payload (size=117)
r 232.992 /NodeList/1/DeviceList/0/$ns3::UanNetDevice/Phy/RxOk ns3::UanHeaderCommon (UAN src=4 dest=255 type=5Protocol Number=0) Payload (size=117)
+ 244.443 /NodeList/4/DeviceList/0/$ns3::UanNetDevice/Phy/Tx ns3::UanHeaderNew (UAN src=4 dest=0 type=4Protocol Number=0 Uid=65535) Payload (size=220)
r 246.704 /NodeList/3/DeviceList/0/$ns3::UanNetDevice/Phy/RxOk ns3::UanHeaderCommon (UAN src=4 dest=0 type=4Protocol Number=0) Payload (size=117)
r 247.411 /NodeList/2/DeviceList/0/$ns3::UanNetDevice/Phy/RxOk ns3::UanHeaderCommon (UAN src=4 dest=0 type=4Protocol Number=0) Payload (size=117)
r 247.973 /NodeList/1/DeviceList/0/$ns3::UanNetDevice/Phy/RxOk ns3::UanHeaderCommon (UAN src=4 dest=0 type=4Protocol Number=0) Payload (size=117)
r 247.981 /NodeList/0/DeviceList/0/$ns3::UanNetDevice/Phy/RxOk ns3::UanHeaderCommon (UAN src=4 dest=0 type=4Protocol Number=0) Payload (size=117)
+ 247.981 /NodeList/0/DeviceList/0/$ns3::UanNetDevice/Phy/Tx ns3::UanHeaderNew (UAN src=0 dest=4 type=6Protocol Number=0 Uid=4) Payload (size=251)
+ 249.05 /NodeList/0/DeviceList/0/$ns3::UanNetDevice/Phy/Tx ns3::UanHeaderNew (UAN src=0 dest=4 type=6Protocol Number=0 Uid=5) Payload (size=251)
r 250.237 /NodeList/3/DeviceList/0/$ns3::UanNetDevice/Phy/RxOk ns3::UanHeaderCommon (UAN src=0 dest=4 type=6Protocol Number=0) Payload (size=117)
r 250.495 /NodeList/2/DeviceList/0/$ns3::UanNetDevice/Phy/RxOk ns3::UanHeaderCommon (UAN src=0 dest=4 type=6Protocol Number=0) Payload (size=117)
r 250.507 /NodeList/1/DeviceList/0/$ns3::UanNetDevice/Phy/RxOk ns3::UanHeaderCommon (UAN src=0 dest=4 type=6Protocol Number=0) Payload (size=117)
r 251.03 /NodeList/4/DeviceList/0/$ns3::UanNetDevice/Phy/RxOk ns3::UanHeaderCommon (UAN src=0 dest=4 type=6Protocol Number=0) Payload (size=117)
+ 251.08 /NodeList/0/DeviceList/0/$ns3::UanNetDevice/Phy/Tx ns3::UanHeaderNew (UAN src=0 dest=4 type=6Protocol Number=0 Uid=6) Payload (size=251)
r 251.965 /NodeList/3/DeviceList/0/$ns3::UanNetDevice/Phy/RxOk ns3::UanHeaderCommon (UAN src=0 dest=4 type=6Protocol Number=0) Payload (size=117)
r 252.223 /NodeList/2/DeviceList/0/$ns3::UanNetDevice/Phy/RxOk ns3::UanHeaderCommon (UAN src=0 dest=4 type=6Protocol Number=0) Payload (size=117)
r 252.229 /NodeList/1/DeviceList/0/$ns3::UanNetDevice/Phy/RxOk ns3::UanHeaderCommon (UAN src=0 dest=4 type=6Protocol Number=0) Payload (size=117)
r 252.883 /NodeList/4/DeviceList/0/$ns3::UanNetDevice/Phy/RxOk ns3::UanHeaderCommon (UAN src=0 dest=4 type=6Protocol Number=0) Payload (size=117)
r 253.693 /NodeList/3/DeviceList/0/$ns3::UanNetDevice/Phy/RxOk ns3::UanHeaderCommon (UAN src=0 dest=4 type=6Protocol Number=0) Payload (size=117)
r 253.952 /NodeList/2/DeviceList/0/$ns3::UanNetDevice/Phy/RxOk ns3::UanHeaderCommon (UAN src=0 dest=4 type=6Protocol Number=0) Payload (size=117)
r 253.983 /NodeList/1/DeviceList/0/$ns3::UanNetDevice/Phy/RxOk ns3::UanHeaderCommon (UAN src=0 dest=4 type=6Protocol Number=0) Payload (size=117)
r 254.726 /NodeList/4/DeviceList/0/$ns3::UanNetDevice/Phy/RxOk ns3::UanHeaderCommon (UAN src=0 dest=4 type=6Protocol Number=0) Payload (size=117)
+ 256.443 /NodeList/4/DeviceList/0/$ns3::UanNetDevice/Phy/Tx ns3::UanHeaderNew (UAN src=4 dest=1 type=4Protocol Number=0 Uid=65535) Payload (size=220)
r 258.718 /NodeList/3/DeviceList/0/$ns3::UanNetDevice/Phy/RxOk ns3::UanHeaderCommon (UAN src=4 dest=1 type=4Protocol Number=0) Payload (size=117)
r 258.923 /NodeList/2/DeviceList/0/$ns3::UanNetDevice/Phy/RxOk ns3::UanHeaderCommon (UAN src=4 dest=1 type=4Protocol Number=0) Payload (size=117)
r 259.459 /NodeList/0/DeviceList/0/$ns3::UanNetDevice/Phy/RxOk ns3::UanHeaderCommon (UAN src=4 dest=1 type=4Protocol Number=0) Payload (size=117)
r 259.97 /NodeList/1/DeviceList/0/$ns3::UanNetDevice/Phy/RxOk ns3::UanHeaderCommon (UAN src=4 dest=1 type=4Protocol Number=0) Payload (size=117)
+ 259.97 /NodeList/1/DeviceList/0/$ns3::UanNetDevice/Phy/Tx ns3::UanHeaderNew (UAN src=1 dest=4 type=6Protocol Number=0 Uid=4) Payload (size=251)
+ 261.05 /NodeList/1/DeviceList/0/$ns3::UanNetDevice/Phy/Tx ns3::UanHeaderNew (UAN src=1 dest=4 type=6Protocol Number=0 Uid=5) Payload (size=251)
r 262.279 /NodeList/3/DeviceList/0/$ns3::UanNetDevice/Phy/RxOk ns3::UanHeaderCommon (UAN src=1 dest=4 type=6Protocol Number=0) Payload (size=117)
r 262.552 /NodeList/0/DeviceList/0/$ns3::UanNetDevice/Phy/RxOk ns3::UanHeaderCommon (UAN src=1 dest=4 type=6Protocol Number=0) Payload (size=117)
+ 263.05 /NodeList/1/DeviceList/0/$ns3::UanNetDevice/Phy/Tx ns3::UanHeaderNew (UAN src=1 dest=4 type=6Protocol Number=0 Uid=6) Payload (size=251)
r 263.501 /NodeList/4/DeviceList/0/$ns3::UanNetDevice/Phy/RxOk ns3::UanHeaderCommon (UAN src=1 dest=4 type=6Protocol Number=0) Payload (size=117)
r 263.533 /NodeList/2/DeviceList/0/$ns3::UanNetDevice/Phy/RxOk ns3::UanHeaderCommon (UAN src=1 dest=4 type=6Protocol Number=0) Payload (size=117)
r 264.254 /NodeList/0/DeviceList/0/$ns3::UanNetDevice/Phy/RxOk ns3::UanHeaderCommon (UAN src=1 dest=4 type=6Protocol Number=0) Payload (size=117)
r 264.469 /NodeList/3/DeviceList/0/$ns3::UanNetDevice/Phy/RxOk ns3::UanHeaderCommon (UAN src=1 dest=4 type=6Protocol Number=0) Payload (size=117)
r 265.379 /NodeList/2/DeviceList/0/$ns3::UanNetDevice/Phy/RxOk ns3::UanHeaderCommon (UAN src=1 dest=4 type=6Protocol Number=0) Payload (size=117)
r 265.712 /NodeList/3/DeviceList/0/$ns3::UanNetDevice/Phy/RxOk ns3::UanHeaderCommon (UAN src=1 dest=4 type=6Protocol Number=0) Payload (size=117)
r 265.847 /NodeList/4/DeviceList/0/$ns3::UanNetDevice/Phy/RxOk ns3::UanHeaderCommon (UAN src=1 dest=4 type=6Protocol Number=0) Payload (size=117)
r 265.983 /NodeList/0/DeviceList/0/$ns3::UanNetDevice/Phy/RxOk ns3::UanHeaderCommon (UAN src=1 dest=4 type=6Protocol Number=0) Payload (size=117)
r 266.714 /NodeList/2/DeviceList/0/$ns3::UanNetDevice/Phy/RxOk ns3::UanHeaderCommon (UAN src=1 dest=4 type=6Protocol Number=0) Payload (size=117)
r 268.184 /NodeList/4/DeviceList/0/$ns3::UanNetDevice/Phy/RxOk ns3::UanHeaderCommon (UAN src=1 dest=4 type=6Protocol Number=0) Payload (size=117)
+ 268.443 /NodeList/4/DeviceList/0/$ns3::UanNetDevice/Phy/Tx ns3::UanHeaderNew (UAN src=4 dest=2 type=4Protocol Number=0 Uid=65535) Payload (size=220)
r 270.709 /NodeList/3/DeviceList/0/$ns3::UanNetDevice/Phy/RxOk ns3::UanHeaderCommon (UAN src=4 dest=2 type=4Protocol Number=0) Payload (size=117)
r 270.926 /NodeList/2/DeviceList/0/$ns3::UanNetDevice/Phy/RxOk ns3::UanHeaderCommon (UAN src=4 dest=2 type=4Protocol Number=0) Payload (size=117)
+ 270.926 /NodeList/2/DeviceList/0/$ns3::UanNetDevice/Phy/Tx ns3::UanHeaderNew (UAN src=2 dest=4 type=6Protocol Number=0 Uid=5) Payload (size=251)
r 271.457 /NodeList/1/DeviceList/0/$ns3::UanNetDevice/Phy/RxOk ns3::UanHeaderCommon (UAN src=4 dest=2 type=4Protocol Number=0) Payload (size=117)
r 271.945 /NodeList/0/DeviceList/0/$ns3::UanNetDevice/Phy/RxOk ns3::UanHeaderCommon (UAN src=4 dest=2 type=4Protocol Number=0) Payload (size=117)
+ 272.05 /NodeList/2/DeviceList/0/$ns3::UanNetDevice/Phy/Tx ns3::UanHeaderNew (UAN src=2 dest=4 type=6Protocol Number=0 Uid=6) Payload (size=251)
r 273.416 /NodeList/4/DeviceList/0/$ns3::UanNetDevice/Phy/RxOk ns3::UanHeaderCommon (UAN src=2 dest=4 type=6Protocol Number=0) Payload (size=117)
r 273.647 /NodeList/3/DeviceList/0/$ns3::UanNetDevice/Phy/RxOk ns3::UanHeaderCommon (UAN src=2 dest=4 type=6Protocol Number=0) Payload (size=117)
r 273.952 /NodeList/0/DeviceList/0/$ns3::UanNetDevice/Phy/RxOk ns3::UanHeaderCommon (UAN src=2 dest=4 type=6Protocol Number=0) Payload (size=117)