+ 19.5439 /NodeList/0/DeviceList/0/$ns3::UanNetDevice/Phy/Tx ns3::UanHeaderNew (UAN src=0 dest=4 type=2Protocol Number=0 Uid=0) Payload (size=250)
r 21.7999 /NodeList/3/DeviceList/0/$ns3::UanNetDevice/Phy/RxOk ns3::UanHeaderCommon (UAN src=0 dest=4 type=2Protocol Number=0) Payload (size=117)
r 22.065 /NodeList/1/DeviceList/0/$ns3::UanNetDevice/Phy/RxOk ns3::UanHeaderCommon (UAN src=0 dest=4 type=2Protocol Number=0) Payload (size=117)
r 22.1141 /NodeList/2/DeviceList/0/$ns3::UanNetDevice/Phy/RxOk ns3::UanHeaderCommon (UAN src=0 dest=4 type=2Protocol Number=0) Payload (size=117)
r 23.0041 /NodeList/4/DeviceList/0/$ns3::UanNetDevice/Phy/RxOk ns3::UanHeaderCommon (UAN src=0 dest=4 type=2Protocol Number=0) Payload (size=117)
+ 23.0041 /NodeList/4/DeviceList/0/$ns3::UanNetDevice/Phy/Tx ns3::UanHeaderNew (UAN src=4 dest=0 type=1Protocol Number=0 Uid=0) Payload (size=25)
r 25.4771 /NodeList/2/DeviceList/0/$ns3::UanNetDevice/Phy/RxOk ns3::UanHeaderCommon (UAN src=4 dest=0 type=1Protocol Number=0) Payload (size=117)
r 25.7236 /NodeList/3/DeviceList/0/$ns3::UanNetDevice/Phy/RxOk ns3::UanHeaderCommon (UAN src=4 dest=0 type=1Protocol Number=0) Payload (size=117)
r 26.0596 /NodeList/1/DeviceList/0/$ns3::UanNetDevice/Phy/RxOk ns3::UanHeaderCommon (UAN src=4 dest=0 type=1Protocol Number=0) Payload (size=117)
r 26.0809 /NodeList/0/DeviceList/0/$ns3::UanNetDevice/Phy/RxOk ns3::UanHeaderCommon (UAN src=4 dest=0 type=1Protocol Number=0) Payload (size=117)
+ 29.5439 /NodeList/1/DeviceList/0/$ns3::UanNetDevice/Phy/Tx ns3::UanHeaderNew (UAN src=1 dest=4 type=2Protocol Number=0 Uid=0) Payload (size=250)
r 31.784 /NodeList/3/DeviceList/0/$ns3::UanNetDevice/Phy/RxOk ns3::UanHeaderCommon (UAN src=1 dest=4 type=2Protocol Number=0) Payload (size=117)
r 33.1511 /NodeList/2/DeviceList/0/$ns3::UanNetDevice/Phy/RxOk ns3::UanHeaderCommon (UAN src=1 dest=4 type=2Protocol Number=0) Payload (size=117)
r 33.3882 /NodeList/4/DeviceList/0/$ns3::UanNetDevice/Phy/RxOk ns3::UanHeaderCommon (UAN src=1 dest=4 type=2Protocol Number=0) Payload (size=117)
+ 33.3882 /NodeList/4/DeviceList/0/$ns3::UanNetDevice/Phy/Tx ns3::UanHeaderNew (UAN src=4 dest=1 type=1Protocol Number=0 Uid=0) Payload (size=25)
r 33.7292 /NodeList/0/DeviceList/0/$ns3::UanNetDevice/Phy/RxOk ns3::UanHeaderCommon (UAN src=1 dest=4 type=2Protocol Number=0) Payload (size=117)
r 35.8638 /NodeList/2/DeviceList/0/$ns3::UanNetDevice/Phy/RxOk ns3::UanHeaderCommon (UAN src=4 dest=1 type=1Protocol Number=0) Payload (size=117)
r 35.9282 /NodeList/0/DeviceList/0/$ns3::UanNetDevice/Phy/RxOk ns3::UanHeaderCommon (UAN src=4 dest=1 type=1Protocol Number=0) Payload (size=117)
r 36.0953 /NodeList/3/DeviceList/0/$ns3::UanNetDevice/Phy/RxOk ns3::UanHeaderCommon (UAN src=4 dest=1 type=1Protocol Number=0) Payload (size=117)
r 36.4626 /NodeList/1/DeviceList/0/$ns3::UanNetDevice/Phy/RxOk ns3::UanHeaderCommon (UAN src=4 dest=1 type=1Protocol Number=0) Payload (size=117)
+ 37.0877 /NodeList/0/DeviceList/0/$ns3::UanNetDevice/Phy/Tx ns3::UanHeaderNew (UAN src=0 dest=4 type=2Protocol Number=0 Uid=1) Payload (size=250)
r 39.3459 /NodeList/3/DeviceList/0/$ns3::UanNetDevice/Phy/RxOk ns3::UanHeaderCommon (UAN src=0 dest=4 type=2Protocol Number=0) Payload (size=117)
+ 39.5439 /NodeList/2/DeviceList/0/$ns3::UanNetDevice/Phy/Tx ns3::UanHeaderNew (UAN src=2 dest=4 type=2Protocol Number=0 Uid=0) Payload (size=250)
r 39.6088 /NodeList/1/DeviceList/0/$ns3::UanNetDevice/Phy/RxOk ns3::UanHeaderCommon (UAN src=0 dest=4 type=2Protocol Number=0) Payload (size=117)
r 39.6447 /NodeList/2/DeviceList/0/$ns3::UanNetDevice/Phy/RxOk ns3::UanHeaderCommon (UAN src=0 dest=4 type=2Protocol Number=0) Payload (size=117)
r 40.5467 /NodeList/4/DeviceList/0/$ns3::UanNetDevice/Phy/RxOk ns3::UanHeaderCommon (UAN src=0 dest=4 type=2Protocol Number=0) Payload (size=117)
+ 40.5467 /NodeList/4/DeviceList/0/$ns3::UanNetDevice/Phy/Tx ns3::UanHeaderNew (UAN src=4 dest=0 type=1Protocol Number=0 Uid=0) Payload (size=25)
r 41.9037 /NodeList/3/DeviceList/0/$ns3::UanNetDevice/Phy/RxOk ns3::UanHeaderCommon (UAN src=2 dest=4 type=2Protocol Number=0) Payload (size=117)
r 42.1494 /NodeList/1/DeviceList/0/$ns3::UanNetDevice/Phy/RxOk ns3::UanHeaderCommon (UAN src=2 dest=4 type=2Protocol Number=0) Payload (size=117)
r 42.688 /NodeList/0/DeviceList/0/$ns3::UanNetDevice/Phy/RxOk ns3::UanHeaderCommon (UAN src=2 dest=4 type=2Protocol Number=0) Payload (size=117)
r 43.0185 /NodeList/2/DeviceList/0/$ns3::UanNetDevice/Phy/RxOk ns3::UanHeaderCommon (UAN src=4 dest=0 type=1Protocol Number=0) Payload (size=117)
r 43.28 /NodeList/3/DeviceList/0/$ns3::UanNetDevice/Phy/RxOk ns3::UanHeaderCommon (UAN src=4 dest=0 type=1Protocol Number=0) Payload (size=117)
r 43.8731 /NodeList/1/DeviceList/0/$ns3::UanNetDevice/Phy/RxOk ns3::UanHeaderCommon (UAN src=4 dest=0 type=1Protocol Number=0) Payload (size=117)
r 44.6065 /NodeList/0/DeviceList/0/$ns3::UanNetDevice/Phy/RxOk ns3::UanHeaderCommon (UAN src=4 dest=0 type=1Protocol Number=0) Payload (size=117)
+ 47.0877 /NodeList/1/DeviceList/0/$ns3::UanNetDevice/Phy/Tx ns3::UanHeaderNew (UAN src=1 dest=4 type=2Protocol Number=0 Uid=1) Payload (size=250)
r 49.3261 /NodeList/3/DeviceList/0/$ns3::UanNetDevice/Phy/RxOk ns3::UanHeaderCommon (UAN src=1 dest=4 type=2Protocol Number=0) Payload (size=117)
+ 49.5439 /NodeList/3/DeviceList/0/$ns3::UanNetDevice/Phy/Tx ns3::UanHeaderNew (UAN src=3 dest=4 type=2Protocol Number=0 Uid=0) Payload (size=250)
r 49.6243 /NodeList/2/DeviceList/0/$ns3::UanNetDevice/Phy/RxOk ns3::UanHeaderCommon (UAN src=1 dest=4 type=2Protocol Number=0) Payload (size=117)
r 50.8235 /NodeList/4/DeviceList/0/$ns3::UanNetDevice/Phy/RxOk ns3::UanHeaderCommon (UAN src=1 dest=4 type=3Protocol Number=0) Payload (size=117)
r 51.2593 /NodeList/0/DeviceList/0/$ns3::UanNetDevice/Phy/RxOk ns3::UanHeaderCommon (UAN src=1 dest=4 type=2Protocol Number=0) Payload (size=117)
r 51.9897 /NodeList/1/DeviceList/0/$ns3::UanNetDevice/Phy/RxOk ns3::UanHeaderCommon (UAN src=3 dest=4 type=2Protocol Number=0) Payload (size=117)
r 52.0085 /NodeList/2/DeviceList/0/$ns3::UanNetDevice/Phy/RxOk ns3::UanHeaderCommon (UAN src=3 dest=4 type=2Protocol Number=0) Payload (size=117)
r 52.7104 /NodeList/0/DeviceList/0/$ns3::UanNetDevice/Phy/RxOk ns3::UanHeaderCommon (UAN src=3 dest=4 type=2Protocol Number=0) Payload (size=117)
r 52.8831 /NodeList/4/DeviceList/0/$ns3::UanNetDevice/Phy/RxOk ns3::UanHeaderCommon (UAN src=3 dest=4 type=2Protocol Number=0) Payload (size=117)
+ 52.8831 /NodeList/4/DeviceList/0/$ns3::UanNetDevice/Phy/Tx ns3::UanHeaderNew (UAN src=4 dest=3 type=1Protocol Number=0 Uid=0) Payload (size=25)
+ 54.6316 /NodeList/0/DeviceList/0/$ns3::UanNetDevice/Phy/Tx ns3::UanHeaderNew (UAN src=0 dest=4 type=2Protocol Number=0 Uid=2) Payload (size=250)
+ 54.6873 /NodeList/2/DeviceList/0/$ns3::UanNetDevice/Phy/Tx ns3::UanHeaderNew (UAN src=2 dest=4 type=2Protocol Number=0 Uid=0) Payload (size=250)
r 55.3662 /NodeList/2/DeviceList/0/$ns3::UanNetDevice/Phy/RxOk ns3::UanHeaderCommon (UAN src=4 dest=3 type=1Protocol Number=0) Payload (size=117)
r 55.4366 /NodeList/0/DeviceList/0/$ns3::UanNetDevice/Phy/RxOk ns3::UanHeaderCommon (UAN src=4 dest=3 type=1Protocol Number=0) Payload (size=117)
r 55.6107 /NodeList/3/DeviceList/0/$ns3::UanNetDevice/Phy/RxOk ns3::UanHeaderCommon (UAN src=4 dest=3 type=1Protocol Number=0) Payload (size=117)
r 55.9871 /NodeList/1/DeviceList/0/$ns3::UanNetDevice/Phy/RxOk ns3::UanHeaderCommon (UAN src=4 dest=3 type=1Protocol Number=0) Payload (size=117)
r 59.5028 /NodeList/3/DeviceList/0/$ns3::UanNetDevice/Phy/RxOk ns3::UanHeaderCommon (UAN src=4 dest=172 type=2Protocol Number=4) Payload (size=117)
r 60.3396 /NodeList/4/DeviceList/0/$ns3::UanNetDevice/Phy/RxOk ns3::UanHeaderCommon (UAN src=58 dest=237 type=8Protocol Number=8) Payload (size=117)
r 63.1259 /NodeList/1/DeviceList/0/$ns3::UanNetDevice/Phy/RxOk ns3::UanHeaderCommon (UAN src=211 dest=75 type=15Protocol Number=10) Payload (size=117)
+ 63.4898 /NodeList/1/DeviceList/0/$ns3::UanNetDevice/Phy/Tx ns3::UanHeaderNew (UAN src=1 dest=4 type=2Protocol Number=0 Uid=1) Payload (size=250)
r 65.7262 /NodeList/3/DeviceList/0/$ns3::UanNetDevice/Phy/RxOk ns3::UanHeaderCommon (UAN src=1 dest=4 type=2Protocol Number=0) Payload (size=117)
r 66.0261 /NodeList/2/DeviceList/0/$ns3::UanNetDevice/Phy/RxOk ns3::UanHeaderCommon (UAN src=1 dest=4 type=2Protocol Number=0) Payload (size=117)
+ 67.0877 /NodeList/3/DeviceList/0/$ns3::UanNetDevice/Phy/Tx ns3::UanHeaderNew (UAN src=3 dest=4 type=2Protocol Number=0 Uid=1) Payload (size=250)
r 67.2284 /NodeList/4/DeviceList/0/$ns3::UanNetDevice/Phy/RxOk ns3::UanHeaderCommon (UAN src=1 dest=4 type=3Protocol Number=0) Payload (size=117)
r 67.647 /NodeList/0/DeviceList/0/$ns3::UanNetDevice/Phy/RxOk ns3::UanHeaderCommon (UAN src=1 dest=4 type=2Protocol Number=0) Payload (size=117)
r 69.5328 /NodeList/1/DeviceList/0/$ns3::UanNetDevice/Phy/RxOk ns3::UanHeaderCommon (UAN src=3 dest=4 type=2Protocol Number=0) Payload (size=117)
r 69.5494 /NodeList/2/DeviceList/0/$ns3::UanNetDevice/Phy/RxOk ns3::UanHeaderCommon (UAN src=3 dest=4 type=2Protocol Number=0) Payload (size=117)
r 69.5805 /NodeList/0/DeviceList/0/$ns3::UanNetDevice/Phy/RxOk ns3::UanHeaderCommon (UAN src=3 dest=4 type=2Protocol Number=0) Payload (size=117)
r 70.7281 /NodeList/4/DeviceList/0/$ns3::UanNetDevice/Phy/RxOk ns3::UanHeaderCommon (UAN src=3 dest=4 type=2Protocol Number=0) Payload (size=117)
+ 70.7281 /NodeList/4/DeviceList/0/$ns3::UanNetDevice/Phy/Tx ns3::UanHeaderNew (UAN src=4 dest=3 type=1Protocol Number=0 Uid=0) Payload (size=25)
+ 72.49 /NodeList/0/DeviceList/0/$ns3::UanNetDevice/Phy/Tx ns3::UanHeaderNew (UAN src=0 dest=4 type=2Protocol Number=0 Uid=2) Payload (size=250)
+ 72.749 /NodeList/2/DeviceList/0/$ns3::UanNetDevice/Phy/Tx ns3::UanHeaderNew (UAN src=2 dest=4 type=2Protocol Number=0 Uid=0) Payload (size=250)
r 73.2029 /NodeList/2/DeviceList/0/$ns3::UanNetDevice/Phy/RxOk ns3::UanHeaderCommon (UAN src=4 dest=3 type=1Protocol Number=0) Payload (size=117)
r 73.2679 /NodeList/0/DeviceList/0/$ns3::UanNetDevice/Phy/RxOk ns3::UanHeaderCommon (UAN src=4 dest=3 type=1Protocol Number=0) Payload (size=117)
r 73.4495 /NodeList/3/DeviceList/0/$ns3::UanNetDevice/Phy/RxOk ns3::UanHeaderCommon (UAN src=4 dest=3 type=1Protocol Number=0) Payload (size=117)
r 73.8337 /NodeList/1/DeviceList/0/$ns3::UanNetDevice/Phy/RxOk ns3::UanHeaderCommon (UAN src=4 dest=3 type=1Protocol Number=0) Payload (size=117)
+ 77.2203 /NodeList/1/DeviceList/0/$ns3::UanNetDevice/Phy/Tx ns3::UanHeaderNew (UAN src=1 dest=4 type=2Protocol Number=0 Uid=1) Payload (size=250)
r 77.3914 /NodeList/3/DeviceList/0/$ns3::UanNetDevice/Phy/RxOk ns3::UanHeaderCommon (UAN src=243 dest=215 type=2Protocol Number=9) Payload (size=117)
r 78.0238 /NodeList/4/DeviceList/0/$ns3::UanNetDevice/Phy/RxOk ns3::UanHeaderCommon (UAN src=154 dest=89 type=0Protocol Number=5) Payload (size=117)
r 79.747 /NodeList/1/DeviceList/0/$ns3::UanNetDevice/Phy/RxOk ns3::UanHeaderCommon (UAN src=9 dest=110 type=12Protocol Number=12) Payload (size=117)
r 81.9858 /NodeList/3/DeviceList/0/$ns3::UanNetDevice/Phy/RxOk ns3::UanHeaderCommon (UAN src=1 dest=4 type=2Protocol Number=0) Payload (size=117)
r 82.2826 /NodeList/2/DeviceList/0/$ns3::UanNetDevice/Phy/RxOk ns3::UanHeaderCommon (UAN src=1 dest=4 type=2Protocol Number=0) Payload (size=117)
r 83.5046 /NodeList/4/DeviceList/0/$ns3::UanNetDevice/Phy/RxOk ns3::UanHeaderCommon (UAN src=1 dest=4 type=3Protocol Number=0) Payload (size=117)
r 84.0042 /NodeList/0/DeviceList/0/$ns3::UanNetDevice/Phy/RxOk ns3::UanHeaderCommon (UAN src=1 dest=4 type=2Protocol Number=0) Payload (size=117)
+ 84.6316 /NodeList/3/DeviceList/0/$ns3::UanNetDevice/Phy/Tx ns3::UanHeaderNew (UAN src=3 dest=4 type=2Protocol Number=0 Uid=2) Payload (size=250)
r 87.0749 /NodeList/1/DeviceList/0/$ns3::UanNetDevice/Phy/RxOk ns3::UanHeaderCommon (UAN src=3 dest=4 type=2Protocol Number=0) Payload (size=117)
r 87.0934 /NodeList/2/DeviceList/0/$ns3::UanNetDevice/Phy/RxOk ns3::UanHeaderCommon (UAN src=3 dest=4 type=2Protocol Number=0) Payload (size=117)
r 87.1241 /NodeList/0/DeviceList/0/$ns3::UanNetDevice/Phy/RxOk ns3::UanHeaderCommon (UAN src=3 dest=4 type=2Protocol Number=0) Payload (size=117)
+ 87.7008 /NodeList/0/DeviceList/0/$ns3::UanNetDevice/Phy/Tx ns3::UanHeaderNew (UAN src=0 dest=4 type=2Protocol Number=0 Uid=2) Payload (size=250)
r 88.2569 /NodeList/4/DeviceList/0/$ns3::UanNetDevice/Phy/RxOk ns3::UanHeaderCommon (UAN src=3 dest=4 type=2Protocol Number=0) Payload (size=117)
+ 88.2569 /NodeList/4/DeviceList/0/$ns3::UanNetDevice/Phy/Tx ns3::UanHeaderNew (UAN src=4 dest=3 type=1Protocol Number=0 Uid=0) Payload (size=25)
r 89.9587 /NodeList/3/DeviceList/0/$ns3::UanNetDevice/Phy/RxOk ns3::UanHeaderCommon (UAN src=0 dest=4 type=2Protocol Number=0) Payload (size=117)
+ 90.0894 /NodeList/2/DeviceList/0/$ns3::UanNetDevice/Phy/Tx ns3::UanHeaderNew (UAN src=2 dest=4 type=2Protocol Number=0 Uid=1) Payload (size=250)
r 90.2418 /NodeList/1/DeviceList/0/$ns3::UanNetDevice/Phy/RxOk ns3::UanHeaderCommon (UAN src=0 dest=4 type=2Protocol Number=0) Payload (size=117)
r 90.2864 /NodeList/2/DeviceList/0/$ns3::UanNetDevice/Phy/RxOk ns3::UanHeaderCommon (UAN src=0 dest=4 type=2Protocol Number=0) Payload (size=117)
r 91.2992 /NodeList/3/DeviceList/0/$ns3::UanNetDevice/Phy/RxOk ns3::UanHeaderCommon (UAN src=4 dest=3 type=1Protocol Number=0) Payload (size=117)
r 91.9278 /NodeList/1/DeviceList/0/$ns3::UanNetDevice/Phy/RxOk ns3::UanHeaderCommon (UAN src=4 dest=3 type=1Protocol Number=0) Payload (size=117)
+ 92.1775 /NodeList/1/DeviceList/0/$ns3::UanNetDevice/Phy/Tx ns3::UanHeaderNew (UAN src=1 dest=4 type=2Protocol Number=0 Uid=2) Payload (size=250)
r 92.5476 /NodeList/3/DeviceList/0/$ns3::UanNetDevice/Phy/RxOk ns3::UanHeaderCommon (UAN src=2 dest=4 type=2Protocol Number=0) Payload (size=117)
r 92.7585 /NodeList/4/DeviceList/0/$ns3::UanNetDevice/Phy/RxOk ns3::UanHeaderCommon (UAN src=2 dest=4 type=2Protocol Number=0) Payload (size=117)
+ 92.7585 /NodeList/4/DeviceList/0/$ns3::UanNetDevice/Phy/Tx ns3::UanHeaderNew (UAN src=4 dest=2 type=1Protocol Number=0 Uid=0) Payload (size=25)
r 93.3312 /NodeList/0/DeviceList/0/$ns3::UanNetDevice/Phy/RxOk ns3::UanHeaderCommon (UAN src=2 dest=4 type=2Protocol Number=0) Payload (size=117)
r 94.4146 /NodeList/3/DeviceList/0/$ns3::UanNetDevice/Phy/RxOk ns3::UanHeaderCommon (UAN src=1 dest=4 type=2Protocol Number=0) Payload (size=117)
r 94.7142 /NodeList/2/DeviceList/0/$ns3::UanNetDevice/Phy/RxOk ns3::UanHeaderCommon (UAN src=1 dest=4 type=2Protocol Number=0) Payload (size=117)
r 95.7305 /NodeList/3/DeviceList/0/$ns3::UanNetDevice/Phy/RxOk ns3::UanHeaderCommon (UAN src=4 dest=2 type=1Protocol Number=0) Payload (size=117)
r 95.7928 /NodeList/2/DeviceList/0/$ns3::UanNetDevice/Phy/RxOk ns3::UanHeaderCommon (UAN src=4 dest=2 type=1Protocol Number=0) Payload (size=117)
+ 95.7928 /NodeList/2/DeviceList/0/$ns3::UanNetDevice/Phy/Tx ns3::UanHeaderNew (UAN src=2 dest=4 type=2Protocol Number=0 Uid=2) Payload (size=250)
r 96.5299 /NodeList/0/DeviceList/0/$ns3::UanNetDevice/Phy/RxOk ns3::UanHeaderCommon (UAN src=1 dest=4 type=2Protocol Number=0) Payload (size=117)
r 97.7425 /NodeList/0/DeviceList/0/$ns3::UanNetDevice/Phy/RxOk ns3::UanHeaderCommon (UAN src=4 dest=2 type=1Protocol Number=0) Payload (size=117)
r 98.059 /NodeList/3/DeviceList/0/$ns3::UanNetDevice/Phy/RxOk ns3::UanHeaderCommon (UAN src=2 dest=4 type=2Protocol Number=0) Payload (size=117)
r 98.2573 /NodeList/4/DeviceList/0/$ns3::UanNetDevice/Phy/RxOk ns3::UanHeaderCommon (UAN src=2 dest=4 type=2Protocol Number=0) Payload (size=117)
+ 98.2573 /NodeList/4/DeviceList/0/$ns3::UanNetDevice/Phy/Tx ns3::UanHeaderNew (UAN src=4 dest=2 type=1Protocol Number=0 Uid=0) Payload (size=25)
r 98.2944 /NodeList/1/DeviceList/0/$ns3::UanNetDevice/Phy/RxOk ns3::UanHeaderCommon (UAN src=2 dest=4 type=2Protocol Number=0) Payload (size=117)
r 99.8837 /NodeList/0/DeviceList/0/$ns3::UanNetDevice/Phy/RxOk ns3::UanHeaderCommon (UAN src=2 dest=4 type=2Protocol Number=0) Payload (size=117)
r 100.732 /NodeList/2/DeviceList/0/$ns3::UanNetDevice/Phy/RxOk ns3::UanHeaderCommon (UAN src=4 dest=2 type=1Protocol Number=0) Payload (size=117)
+ 100.732 /NodeList/2/DeviceList/0/$ns3::UanNetDevice/Phy/Tx ns3::UanHeaderNew (UAN src=2 dest=4 type=2Protocol Number=0 Uid=3) Payload (size=250)
r 100.994 /NodeList/3/DeviceList/0/$ns3::UanNetDevice/Phy/RxOk ns3::UanHeaderCommon (UAN src=4 dest=2 type=1Protocol Number=0) Payload (size=117)
r 101.333 /NodeList/1/DeviceList/0/$ns3::UanNetDevice/Phy/RxOk ns3::UanHeaderCommon (UAN src=4 dest=2 type=1Protocol Number=0) Payload (size=117)
r 101.398 /NodeList/0/DeviceList/0/$ns3::UanNetDevice/Phy/RxOk ns3::UanHeaderCommon (UAN src=4 dest=2 type=1Protocol Number=0) Payload (size=117)
+ 102.175 /NodeList/3/DeviceList/0/$ns3::UanNetDevice/Phy/Tx ns3::UanHeaderNew (UAN src=3 dest=4 type=2Protocol Number=0 Uid=3) Payload (size=250)
r 102.998 /NodeList/3/DeviceList/0/$ns3::UanNetDevice/Phy/RxOk ns3::UanHeaderCommon (UAN src=2 dest=4 type=2Protocol Number=0) Payload (size=117)
r 103.21 /NodeList/4/DeviceList/0/$ns3::UanNetDevice/Phy/RxOk ns3::UanHeaderCommon (UAN src=2 dest=4 type=2Protocol Number=0) Payload (size=117)
+ 103.21 /NodeList/4/DeviceList/0/$ns3::UanNetDevice/Phy/Tx ns3::UanHeaderNew (UAN src=4 dest=2 type=1Protocol Number=0 Uid=0) Payload (size=25)
r 103.229 /NodeList/1/DeviceList/0/$ns3::UanNetDevice/Phy/RxOk ns3::UanHeaderCommon (UAN src=2 dest=4 type=2Protocol Number=0) Payload (size=117)
+ 103.511 /NodeList/0/DeviceList/0/$ns3::UanNetDevice/Phy/Tx ns3::UanHeaderNew (UAN src=0 dest=4 type=2Protocol Number=0 Uid=3) Payload (size=250)
r 103.817 /NodeList/0/DeviceList/0/$ns3::UanNetDevice/Phy/RxOk ns3::UanHeaderCommon (UAN src=2 dest=4 type=2Protocol Number=0) Payload (size=117)
+ 104.653 /NodeList/1/DeviceList/0/$ns3::UanNetDevice/Phy/Tx ns3::UanHeaderNew (UAN src=1 dest=4 type=2Protocol Number=0 Uid=2) Payload (size=250)
r 105.893 /NodeList/1/DeviceList/0/$ns3::UanNetDevice/Phy/RxOk ns3::UanHeaderCommon (UAN src=3 dest=4 type=2Protocol Number=0) Payload (size=117)
r 106.499 /NodeList/2/DeviceList/0/$ns3::UanNetDevice/Phy/RxOk ns3::UanHeaderCommon (UAN src=3 dest=36 type=2Protocol Number=0) Payload (size=117)
r 107.712 /NodeList/2/DeviceList/0/$ns3::UanNetDevice/Phy/RxOk ns3::UanHeaderCommon (UAN src=0 dest=4 type=2Protocol Number=0) Payload (size=117)
r 108.129 /NodeList/3/DeviceList/0/$ns3::UanNetDevice/Phy/RxOk ns3::UanHeaderCommon (UAN src=1 dest=4 type=2Protocol Number=0) Payload (size=117)
r 109.144 /NodeList/2/DeviceList/0/$ns3::UanNetDevice/Phy/RxOk ns3::UanHeaderCommon (UAN src=1 dest=4 type=2Protocol Number=0) Payload (size=117)
r 109.275 /NodeList/0/DeviceList/0/$ns3::UanNetDevice/Phy/RxOk ns3::UanHeaderCommon (UAN src=1 dest=4 type=2Protocol Number=0) Payload (size=117)
r 109.7 /NodeList/4/DeviceList/0/$ns3::UanNetDevice/Phy/RxOk ns3::UanHeaderCommon (UAN src=1 dest=4 type=2Protocol Number=4) Payload (size=117)
+ 109.7 /NodeList/4/DeviceList/0/$ns3::UanNetDevice/Phy/Tx ns3::UanHeaderNew (UAN src=4 dest=1 type=1Protocol Number=0 Uid=0) Payload (size=25)
r 112.173 /NodeList/2/DeviceList/0/$ns3::UanNetDevice/Phy/RxOk ns3::UanHeaderCommon (UAN src=4 dest=1 type=1Protocol Number=0) Payload (size=117)
r 112.258 /NodeList/0/DeviceList/0/$ns3::UanNetDevice/Phy/RxOk ns3::UanHeaderCommon (UAN src=4 dest=1 type=1Protocol Number=0) Payload (size=117)
r 112.407 /NodeList/3/DeviceList/0/$ns3::UanNetDevice/Phy/RxOk ns3::UanHeaderCommon (UAN src=4 dest=1 type=1Protocol Number=0) Payload (size=117)
r 112.771 /NodeList/1/DeviceList/0/$ns3::UanNetDevice/Phy/RxOk ns3::UanHeaderCommon (UAN src=4 dest=1 type=1Protocol Number=0) Payload (size=117)
+ 112.771 /NodeList/1/DeviceList/0/$ns3::UanNetDevice/Phy/Tx ns3::UanHeaderNew (UAN src=1 dest=4 type=2Protocol Number=0 Uid=3) Payload (size=250)
r 115.019 /NodeList/3/DeviceList/0/$ns3::UanNetDevice/Phy/RxOk ns3::UanHeaderCommon (UAN src=1 dest=4 type=2Protocol Number=0) Payload (size=117)
+ 115.323 /NodeList/0/DeviceList/0/$ns3::UanNetDevice/Phy/Tx ns3::UanHeaderNew (UAN src=0 dest=4 type=2Protocol Number=0 Uid=3) Payload (size=250)
+ 115.623 /NodeList/2/DeviceList/0/$ns3::UanNetDevice/Phy/Tx ns3::UanHeaderNew (UAN src=2 dest=4 type=2Protocol Number=0 Uid=3) Payload (size=250)
r 115.853 /NodeList/2/DeviceList/0/$ns3::UanNetDevice/Phy/RxOk ns3::UanHeaderCommon (UAN src=1 dest=4 type=2Protocol Number=0) Payload (size=117)
r 116.582 /NodeList/4/DeviceList/0/$ns3::UanNetDevice/Phy/RxOk ns3::UanHeaderCommon (UAN src=1 dest=4 type=2Protocol Number=0) Payload (size=117)
+ 116.582 /NodeList/4/DeviceList/0/$ns3::UanNetDevice/Phy/Tx ns3::UanHeaderNew (UAN src=4 dest=1 type=1Protocol Number=0 Uid=0) Payload (size=25)
r 116.83 /NodeList/0/DeviceList/0/$ns3::UanNetDevice/Phy/RxOk ns3::UanHeaderCommon (UAN src=1 dest=4 type=2Protocol Number=0) Payload (size=117)
r 118.114 /NodeList/3/DeviceList/0/$ns3::UanNetDevice/Phy/RxOk ns3::UanHeaderCommon (UAN src=2 dest=4 type=2Protocol Number=0) Payload (size=117)
r 118.354 /NodeList/1/DeviceList/0/$ns3::UanNetDevice/Phy/RxOk ns3::UanHeaderCommon (UAN src=2 dest=4 type=2Protocol Number=0) Payload (size=117)
r 119.826 /NodeList/2/DeviceList/0/$ns3::UanNetDevice/Phy/RxOk ns3::UanHeaderCommon (UAN src=32 dest=33 type=7Protocol Number=8) Payload (size=117)
+ 120.081 /NodeList/3/DeviceList/0/$ns3::UanNetDevice/Phy/Tx ns3::UanHeaderNew (UAN src=3 dest=4 type=2Protocol Number=0 Uid=3) Payload (size=250)
r 120.333 /NodeList/3/DeviceList/0/$ns3::UanNetDevice/Phy/RxOk ns3::UanHeaderCommon (UAN src=5 dest=227 type=9Protocol Number=9) Payload (size=117)
r 122.793 /NodeList/2/DeviceList/0/$ns3::UanNetDevice/Phy/RxOk ns3::UanHeaderCommon (UAN src=3 dest=4 type=2Protocol Number=0) Payload (size=117)
r 122.822 /NodeList/0/DeviceList/0/$ns3::UanNetDevice/Phy/RxOk ns3::UanHeaderCommon (UAN src=3 dest=4 type=2Protocol Number=0) Payload (size=117)
r 123.964 /NodeList/4/DeviceList/0/$ns3::UanNetDevice/Phy/RxOk ns3::UanHeaderCommon (UAN src=3 dest=4 type=2Protocol Number=0) Payload (size=117)
+ 123.964 /NodeList/4/DeviceList/0/$ns3::UanNetDevice/Phy/Tx ns3::UanHeaderNew (UAN src=4 dest=3 type=1Protocol Number=0 Uid=0) Payload (size=25)
r 124.055 /NodeList/1/DeviceList/0/$ns3::UanNetDevice/Phy/RxOk ns3::UanHeaderCommon (UAN src=179 dest=136 type=10Protocol Number=8) Payload (size=117)
+ 125.451 /NodeList/1/DeviceList/0/$ns3::UanNetDevice/Phy/Tx ns3::UanHeaderNew (UAN src=1 dest=4 type=2Protocol Number=0 Uid=3) Payload (size=250)
r 125.708 /NodeList/1/DeviceList/0/$ns3::UanNetDevice/Phy/RxOk ns3::UanHeaderCommon (UAN src=3 dest=4 type=2Protocol Number=0) Payload (size=117)
r 126.44 /NodeList/2/DeviceList/0/$ns3::UanNetDevice/Phy/RxOk ns3::UanHeaderCommon (UAN src=4 dest=3 type=1Protocol Number=0) Payload (size=117)
r 126.522 /NodeList/0/DeviceList/0/$ns3::UanNetDevice/Phy/RxOk ns3::UanHeaderCommon (UAN src=4 dest=3 type=1Protocol Number=0) Payload (size=117)
r 126.7 /NodeList/3/DeviceList/0/$ns3::UanNetDevice/Phy/RxOk ns3::UanHeaderCommon (UAN src=4 dest=3 type=1Protocol Number=0) Payload (size=117)
+ 126.7 /NodeList/3/DeviceList/0/$ns3::UanNetDevice/Phy/Tx ns3::UanHeaderNew (UAN src=3 dest=4 type=2Protocol Number=0 Uid=4) Payload (size=250)
r 128.245 /NodeList/2/DeviceList/0/$ns3::UanNetDevice/Phy/RxOk ns3::UanHeaderCommon (UAN src=1 dest=4 type=2Protocol Number=0) Payload (size=117)
r 129.149 /NodeList/1/DeviceList/0/$ns3::UanNetDevice/Phy/RxOk ns3::UanHeaderCommon (UAN src=3 dest=4 type=2Protocol Number=0) Payload (size=117)
r 129.397 /NodeList/2/DeviceList/0/$ns3::UanNetDevice/Phy/RxOk ns3::UanHeaderCommon (UAN src=3 dest=4 type=2Protocol Number=0) Payload (size=117)
r 129.458 /NodeList/4/DeviceList/0/$ns3::UanNetDevice/Phy/RxOk ns3::UanHeaderCommon (UAN src=1 dest=4 type=2Protocol Number=0) Payload (size=117)
+ 129.458 /NodeList/4/DeviceList/0/$ns3::UanNetDevice/Phy/Tx ns3::UanHeaderNew (UAN src=4 dest=1 type=1Protocol Number=0 Uid=0) Payload (size=25)
+ 129.551 /NodeList/0/DeviceList/0/$ns3::UanNetDevice/Phy/Tx ns3::UanHeaderNew (UAN src=0 dest=4 type=2Protocol Number=0 Uid=3) Payload (size=250)
r 129.868 /NodeList/0/DeviceList/0/$ns3::UanNetDevice/Phy/RxOk ns3::UanHeaderCommon (UAN src=1 dest=4 type=2Protocol Number=0) Payload (size=117)
+ 131.329 /NodeList/2/DeviceList/0/$ns3::UanNetDevice/Phy/Tx ns3::UanHeaderNew (UAN src=2 dest=4 type=2Protocol Number=0 Uid=3) Payload (size=250)
r 131.946 /NodeList/2/DeviceList/0/$ns3::UanNetDevice/Phy/RxOk ns3::UanHeaderCommon (UAN src=4 dest=1 type=1Protocol Number=0) Payload (size=117)
r 133.237 /NodeList/1/DeviceList/0/$ns3::UanNetDevice/Phy/RxOk ns3::UanHeaderCommon (UAN src=0 dest=75 type=9Protocol Number=12) Payload (size=117)
r 133.365 /NodeList/3/DeviceList/0/$ns3::UanNetDevice/Phy/RxOk ns3::UanHeaderCommon (UAN src=11 dest=126 type=6Protocol Number=13) Payload (size=117)
r 134.417 /NodeList/4/DeviceList/0/$ns3::UanNetDevice/Phy/RxOk ns3::UanHeaderCommon (UAN src=2 dest=4 type=2Protocol Number=0) Payload (size=117)
+ 134.417 /NodeList/4/DeviceList/0/$ns3::UanNetDevice/Phy/Tx ns3::UanHeaderNew (UAN src=4 dest=2 type=1Protocol Number=0 Uid=0) Payload (size=25)
r 134.598 /NodeList/3/DeviceList/0/$ns3::UanNetDevice/Phy/RxOk ns3::UanHeaderCommon (UAN src=2 dest=4 type=2Protocol Number=0) Payload (size=117)
r 134.697 /NodeList/1/DeviceList/0/$ns3::UanNetDevice/Phy/RxOk ns3::UanHeaderCommon (UAN src=2 dest=4 type=2Protocol Number=0) Payload (size=117)
r 135.011 /NodeList/0/DeviceList/0/$ns3::UanNetDevice/Phy/RxOk ns3::UanHeaderCommon (UAN src=2 dest=4 type=2Protocol Number=0) Payload (size=117)
r 136.892 /NodeList/2/DeviceList/0/$ns3::UanNetDevice/Phy/RxOk ns3::UanHeaderCommon (UAN src=4 dest=2 type=1Protocol Number=0) Payload (size=117)
+ 136.892 /NodeList/2/DeviceList/0/$ns3::UanNetDevice/Phy/Tx ns3::UanHeaderNew (UAN src=2 dest=4 type=2Protocol Number=0 Uid=4) Payload (size=250)
r 136.977 /NodeList/0/DeviceList/0/$ns3::UanNetDevice/Phy/RxOk ns3::UanHeaderCommon (UAN src=4 dest=2 type=1Protocol Number=0) Payload (size=117)
r 137.156 /NodeList/3/DeviceList/0/$ns3::UanNetDevice/Phy/RxOk ns3::UanHeaderCommon (UAN src=4 dest=2 type=1Protocol Number=0) Payload (size=117)
r 137.488 /NodeList/1/DeviceList/0/$ns3::UanNetDevice/Phy/RxOk ns3::UanHeaderCommon (UAN src=4 dest=2 type=1Protocol Number=0) Payload (size=117)
+ 138.671 /NodeList/3/DeviceList/0/$ns3::UanNetDevice/Phy/Tx ns3::UanHeaderNew (UAN src=3 dest=4 type=2Protocol Number=0 Uid=4) Payload (size=250)
r 139.157 /NodeList/3/DeviceList/0/$ns3::UanNetDevice/Phy/RxOk ns3::UanHeaderCommon (UAN src=2 dest=4 type=2Protocol Number=0) Payload (size=117)
r 139.366 /NodeList/4/DeviceList/0/$ns3::UanNetDevice/Phy/RxOk ns3::UanHeaderCommon (UAN src=2 dest=4 type=2Protocol Number=0) Payload (size=117)
+ 139.366 /NodeList/4/DeviceList/0/$ns3::UanNetDevice/Phy/Tx ns3::UanHeaderNew (UAN src=4 dest=2 type=1Protocol Number=0 Uid=0) Payload (size=25)
r 139.903 /NodeList/1/DeviceList/0/$ns3::UanNetDevice/Phy/RxOk ns3::UanHeaderCommon (UAN src=2 dest=4 type=2Protocol Number=0) Payload (size=117)
r 139.94 /NodeList/0/DeviceList/0/$ns3::UanNetDevice/Phy/RxOk ns3::UanHeaderCommon (UAN src=2 dest=4 type=2Protocol Number=0) Payload (size=117)
r 141.615 /NodeList/1/DeviceList/0/$ns3::UanNetDevice/Phy/RxOk ns3::UanHeaderCommon (UAN src=3 dest=4 type=2Protocol Number=0) Payload (size=117)
+ 142.615 /NodeList/1/DeviceList/0/$ns3::UanNetDevice/Phy/Tx ns3::UanHeaderNew (UAN src=1 dest=4 type=2Protocol Number=0 Uid=3) Payload (size=250)
r 142.684 /NodeList/0/DeviceList/0/$ns3::UanNetDevice/Phy/RxOk ns3::UanHeaderCommon (UAN src=3 dest=4 type=2Protocol Number=0) Payload (size=117)
r 142.94 /NodeList/2/DeviceList/0/$ns3::UanNetDevice/Phy/RxOk ns3::UanHeaderCommon (UAN src=3 dest=4 type=10Protocol Number=4) Payload (size=117)
+ 144.264 /NodeList/0/DeviceList/0/$ns3::UanNetDevice/Phy/Tx ns3::UanHeaderNew (UAN src=0 dest=4 type=2Protocol Number=0 Uid=4) Payload (size=250)
r 144.861 /NodeList/3/DeviceList/0/$ns3::UanNetDevice/Phy/RxOk ns3::UanHeaderCommon (UAN src=1 dest=4 type=2Protocol Number=0) Payload (size=117)
r 145.159 /NodeList/2/DeviceList/0/$ns3::UanNetDevice/Phy/RxOk ns3::UanHeaderCommon (UAN src=1 dest=4 type=2Protocol Number=0) Payload (size=117)
r 146.401 /NodeList/4/DeviceList/0/$ns3::UanNetDevice/Phy/RxOk ns3::UanHeaderCommon (UAN src=1 dest=4 type=2Protocol Number=0) Payload (size=117)
+ 146.401 /NodeList/4/DeviceList/0/$ns3::UanNetDevice/Phy/Tx ns3::UanHeaderNew (UAN src=4 dest=1 type=1Protocol Number=0 Uid=0) Payload (size=25)
r 146.762 /NodeList/0/DeviceList/0/$ns3::UanNetDevice/Phy/RxOk ns3::UanHeaderCommon (UAN src=1 dest=4 type=2Protocol Number=0) Payload (size=117)
r 149.582 /NodeList/2/DeviceList/0/$ns3::UanNetDevice/Phy/RxOk ns3::UanHeaderCommon (UAN src=4 dest=1 type=1Protocol Number=0) Payload (size=117)
r 149.811 /NodeList/3/DeviceList/0/$ns3::UanNetDevice/Phy/RxOk ns3::UanHeaderCommon (UAN src=162 dest=180 type=12Protocol Number=13) Payload (size=117)
+ 150.191 /NodeList/2/DeviceList/0/$ns3::UanNetDevice/Phy/Tx ns3::UanHeaderNew (UAN src=2 dest=4 type=2Protocol Number=0 Uid=4) Payload (size=250)
+ 150.605 /NodeList/3/DeviceList/0/$ns3::UanNetDevice/Phy/Tx ns3::UanHeaderNew (UAN src=3 dest=4 type=2Protocol Number=0 Uid=4) Payload (size=250)
r 150.696 /NodeList/1/DeviceList/0/$ns3::UanNetDevice/Phy/RxOk ns3::UanHeaderCommon (UAN src=20 dest=1 type=1Protocol Number=0) Payload (size=117)
+ 150.696 /NodeList/1/DeviceList/0/$ns3::UanNetDevice/Phy/Tx ns3::UanHeaderNew (UAN src=1 dest=4 type=2Protocol Number=0 Uid=4) Payload (size=250)
r 152.735 /NodeList/4/DeviceList/0/$ns3::UanNetDevice/Phy/RxOk ns3::UanHeaderCommon (UAN src=2 dest=4 type=2Protocol Number=0) Payload (size=117)
+ 152.735 /NodeList/4/DeviceList/0/$ns3::UanNetDevice/Phy/Tx ns3::UanHeaderNew (UAN src=4 dest=2 type=1Protocol Number=0 Uid=0) Payload (size=25)
r 154.751 /NodeList/0/DeviceList/0/$ns3::UanNetDevice/Phy/RxOk ns3::UanHeaderCommon (UAN src=2 dest=5 type=2Protocol Number=0) Payload (size=117)
r 155.212 /NodeList/2/DeviceList/0/$ns3::UanNetDevice/Phy/RxOk ns3::UanHeaderCommon (UAN src=4 dest=2 type=1Protocol Number=0) Payload (size=117)